/*--------------------------------*- C++ -*----------------------------------*\
| =========                 |                                                 |
| \\      /  F ield         | OpenFOAM: The Open Source CFD Toolbox           |
|  \\    /   O peration     | Version:  v2012                                 |
|   \\  /    A nd           | Website:  www.openfoam.com                      |
|    \\/     M anipulation  |                                                 |
\*---------------------------------------------------------------------------*/
FoamFile
{
    version     2.0;
    format      ascii;
    class       volScalarField;
    location    "0.3";
    object      p;
}
// * * * * * * * * * * * * * * * * * * * * * * * * * * * * * * * * * * * * * //

dimensions      [0 2 -2 0 0 0 0];


internalField   nonuniform List<scalar> 
8800
(
7.66421e-10
0.000658609
0.000727552
0.000861043
0.000921497
0.00095725
0.000914528
0.000923803
0.00101326
0.00106642
0.000900449
0.000622757
0.00031913
-7.58386e-05
-0.000575663
-0.00111447
-0.00178699
-0.00272491
-0.00380606
-0.00550997
2.78088e-06
0.00065667
0.000728236
0.000859124
0.000923909
0.000954354
0.000918031
0.000921119
0.00101588
0.00105919
0.00090305
0.000625296
0.000320373
-8.30535e-05
-0.00057642
-0.00113125
-0.00179809
-0.00277157
-0.00390546
-0.00592605
8.23441e-06
0.000651655
0.000730078
0.000855508
0.00093209
0.000947095
0.000922916
0.000917957
0.00101848
0.00106032
0.000891104
0.000636836
0.000314855
-8.18578e-05
-0.000569568
-0.00116078
-0.00188501
-0.00283776
-0.00386517
-0.00567375
1.39277e-05
0.000646474
0.000729705
0.000853741
0.000922657
0.000965573
0.000921651
0.000917418
0.00101637
0.00107049
0.000865718
0.000656233
0.00029707
-7.15075e-05
-0.000559657
-0.00117005
-0.00202327
-0.0032025
-0.00463114
-0.00572408
2.31912e-05
0.000635739
0.00073334
0.000847248
0.000934649
0.000937023
0.000934506
0.000906569
0.00102975
0.00104698
0.000889422
0.000652703
0.000303248
-6.80629e-05
-0.000573203
-0.0011986
-0.00188687
-0.0027929
-0.004016
-0.00616622
3.35346e-05
0.000623872
0.000733158
0.000843705
0.000934061
0.000944349
0.000933391
0.000907827
0.00103101
0.00104269
0.000898859
0.000648698
0.000309308
-7.64729e-05
-0.000576737
-0.00117692
-0.00189033
-0.00299109
-0.00445655
-0.00708688
4.69209e-05
0.000608509
0.000734461
0.000837587
0.00094362
0.000940925
0.000931737
0.000913088
0.0010248
0.00107815
0.000881344
0.00064953
0.000314649
-8.72957e-05
-0.000580312
-0.00117677
-0.00192904
-0.00297223
-0.00454638
-0.00727077
6.42147e-05
0.000584035
0.000738979
0.000830004
0.000952041
0.000932829
0.000929625
0.00092141
0.00101468
0.00108587
0.000881852
0.000640732
0.000327959
-9.74956e-05
-0.000594956
-0.00119491
-0.00194702
-0.00303988
-0.00471624
-0.00761859
8.33569e-05
0.000564813
0.000729634
0.0008295
0.000948687
0.000960178
0.000911597
0.000941578
0.00100286
0.00108594
0.000901388
0.000624725
0.000339856
-0.000106496
-0.000614005
-0.00121099
-0.00199541
-0.00314423
-0.00493373
-0.00795128
0.000109695
0.000532828
0.000728634
0.000824307
0.000954118
0.000952299
0.000910075
0.000939473
0.00101039
0.00107525
0.000907102
0.000626429
0.000319066
-0.000110571
-0.00063149
-0.00124173
-0.00205362
-0.00325032
-0.00509338
-0.00822224
0.000134206
0.000510599
0.000708368
0.000828221
0.000947444
0.000967358
0.000910667
0.000927192
0.00103022
0.00105537
0.000906467
0.000630353
0.000301762
-0.000117947
-0.000654144
-0.00127955
-0.00211605
-0.00336465
-0.00528284
-0.00851354
0.000167613
0.000481283
0.000684822
0.000831378
0.000941484
0.000981657
0.000909189
0.000920991
0.00103327
0.00106363
0.000899255
0.00062237
0.000296803
-0.000130638
-0.000681928
-0.00132586
-0.00218987
-0.00348954
-0.00548276
-0.00878308
0.000197826
0.000459526
0.000652352
0.000832535
0.000941778
0.000982285
0.000927326
0.00091104
0.00102676
0.00107322
0.000884666
0.000603856
0.000293068
-0.000141017
-0.000713827
-0.00138437
-0.00227425
-0.00361566
-0.00567347
-0.00903361
0.000229011
0.000443619
0.000606699
0.000827982
0.0009454
0.00098
0.00094797
0.000905473
0.00101238
0.00107552
0.00087775
0.000582372
0.00027842
-0.00014897
-0.000742981
-0.00145063
-0.00236786
-0.0037433
-0.00585006
-0.00925646
0.00025998
0.000432664
0.000567483
0.000810351
0.000953693
0.000974436
0.000959387
0.000910359
0.000988221
0.00106775
0.000880812
0.000563496
0.000251656
-0.000159255
-0.000766565
-0.00151622
-0.00246769
-0.00387091
-0.00601721
-0.00946887
0.000283728
0.000431813
0.000526621
0.000779709
0.000961528
0.000973986
0.00096116
0.000924863
0.000971793
0.00104103
0.000884313
0.000549406
0.000218857
-0.000179962
-0.000785418
-0.00157255
-0.00256827
-0.0040002
-0.00618036
-0.00967261
0.000307241
0.000433006
0.00049598
0.000736136
0.000962166
0.000978493
0.000950273
0.000937522
0.000961707
0.00100415
0.000875056
0.000544753
0.000189503
-0.000209772
-0.000806887
-0.00162133
-0.00266198
-0.00412546
-0.00633576
-0.00986345
0.000323305
0.000438253
0.000475131
0.000682934
0.000949641
0.000985423
0.000940592
0.000940696
0.000960162
0.000972265
0.000852315
0.000541836
0.000168573
-0.000244063
-0.000834998
-0.00166331
-0.00274334
-0.00424238
-0.00648456
-0.0100461
0.000337175
0.000442518
0.000463218
0.000633059
0.000920067
0.000989947
0.000930758
0.000932127
0.000961334
0.000946859
0.000819186
0.000529956
0.000155727
-0.000270833
-0.000864507
-0.00170469
-0.00281809
-0.00435146
-0.00661933
-0.0102073
0.000347079
0.000444641
0.000459081
0.000588509
0.000872701
0.000983519
0.000920973
0.000916093
0.000960477
0.000930777
0.00078362
0.000506358
0.000145804
-0.000286506
-0.000887864
-0.00174141
-0.00288404
-0.00444587
-0.00673623
-0.0103496
0.000354012
0.000443935
0.000458779
0.00055194
0.000819018
0.000963249
0.000905568
0.000891892
0.000953172
0.000924166
0.000752523
0.000473677
0.00012945
-0.000294242
-0.00089557
-0.00176292
-0.00293575
-0.00453056
-0.00684289
-0.0104732
0.000358422
0.000438361
0.000458082
0.000520984
0.000763185
0.000928736
0.000880882
0.000857303
0.000935207
0.000924456
0.000734839
0.000437401
0.000101295
-0.000299729
-0.000887093
-0.0017606
-0.00296554
-0.004599
-0.00693612
-0.0105772
0.000359018
0.000433643
0.000455172
0.000495566
0.000707083
0.000885868
0.000848206
0.000809098
0.000899669
0.000925963
0.000736185
0.000408222
6.43688e-05
-0.000313641
-0.000867126
-0.00173088
-0.00296007
-0.00463556
-0.00700662
-0.0106641
0.000357353
0.000423503
0.00045005
0.000469811
0.000649553
0.000837845
0.000811313
0.000747063
0.000838514
0.000916939
0.000753841
0.000401506
2.73654e-05
-0.000340733
-0.00084772
-0.00167447
-0.00291043
-0.00462629
-0.00704108
-0.0107192
0.000351134
0.000410231
0.000442746
0.000444075
0.000589685
0.000783188
0.000774651
0.000681649
0.000750915
0.000878114
0.000779121
0.000425114
9.34312e-06
-0.00037269
-0.000840017
-0.00160351
-0.00281445
-0.00455573
-0.00701412
-0.0107201
0.000341888
0.000392949
0.000431421
0.000420563
0.000526039
0.000715938
0.000737351
0.00062322
0.000641902
0.00079753
0.000786032
0.00047418
2.74018e-05
-0.000393465
-0.00084023
-0.00153306
-0.00268107
-0.00441456
-0.00690573
-0.0106402
0.000329251
0.000370749
0.000414496
0.000398414
0.000460927
0.000634523
0.000692952
0.000576373
0.000532004
0.000676795
0.000747523
0.000526235
8.34575e-05
-0.000378595
-0.000833631
-0.00146684
-0.00252471
-0.00420354
-0.00669568
-0.0104434
0.000313366
0.000343588
0.000389627
0.000375715
0.000399988
0.00054102
0.000629044
0.00053719
0.000438586
0.000528083
0.000652574
0.000543232
0.000161269
-0.000319872
-0.000799236
-0.00139144
-0.00234763
-0.0039218
-0.00635847
-0.0100877
0.000293585
0.000312743
0.000355613
0.000349407
0.000344626
0.000441289
0.000542136
0.000492388
0.000365172
0.000380492
0.000506315
0.000496349
0.000218162
-0.000232838
-0.000724006
-0.0012914
-0.0021521
-0.00359069
-0.00590046
-0.00950102
0.000269297
0.000278569
0.000312965
0.000314775
0.00029355
0.000344564
0.00043609
0.00042566
0.000303995
0.000252134
0.000333288
0.000382039
0.000214385
-0.000161686
-0.000631987
-0.00116628
-0.00191809
-0.00317492
-0.00527822
-0.00868049
0.000239597
0.00024136
0.000263219
0.000269626
0.000243217
0.000255677
0.000319498
0.000333564
0.000238455
0.000143386
0.000161347
0.000214897
0.000138097
-0.000142252
-0.000561451
-0.00105828
-0.00170926
-0.00273993
-0.00448196
-0.00737596
0.000203903
0.000200554
0.000208999
0.000214239
0.000188556
0.00017371
0.000204197
0.000223314
0.000155561
4.41457e-05
-3.28093e-07
2.32058e-05
-3.60916e-06
-0.000192245
-0.00053054
-0.000961472
-0.00149986
-0.00229548
-0.00363317
-0.00591626
0.000162265
0.000155402
0.000151967
0.000150282
0.00012606
9.53118e-05
9.5727e-05
0.000105015
6.09931e-05
-5.00678e-05
-0.000153574
-0.000189699
-0.00021331
-0.000307
-0.000517329
-0.000830956
-0.00123797
-0.0018052
-0.00269072
-0.00412599
0.000115076
0.00010574
9.20152e-05
8.08328e-05
5.52073e-05
1.76975e-05
-6.71147e-06
-1.52596e-05
-3.83038e-05
-0.000115882
-0.000247914
-0.000407805
-0.000596746
-0.000844471
-0.00115607
-0.00147029
-0.00167944
-0.00167117
-0.00134887
-0.000627592
6.38173e-05
5.13222e-05
2.97754e-05
6.88935e-06
-2.22549e-05
-6.15882e-05
-0.000100264
-0.000134567
-0.000170778
-0.00019109
-0.000167981
-9.16087e-05
2.3983e-05
0.000115637
0.000105193
-7.25481e-05
-0.000476047
-0.00118535
-0.00234491
-0.00418717
9.31651e-06
-6.06904e-06
-3.48133e-05
-6.90674e-05
-0.000106231
-0.000147689
-0.000178541
-0.000204102
-0.000272174
-0.00043014
-0.000675841
-0.000974274
-0.00127242
-0.00151606
-0.00164029
-0.00155034
-0.00110222
-0.000109738
0.00169177
0.00473841
-4.56917e-05
-6.48408e-05
-0.000101
-0.000144847
-0.000192977
-0.000247433
-0.000295398
-0.000297253
-0.000207883
-2.82458e-05
0.00022523
0.000524208
0.000820313
0.00103728
0.00106748
0.000793619
8.38873e-05
-0.00121834
-0.00334961
-0.00679884
-9.82933e-05
-0.000122284
-0.000166298
-0.000221424
-0.000278936
-0.000333575
-0.000396704
-0.000486689
-0.000617277
-0.000788343
-0.000987879
-0.00118413
-0.00132321
-0.00133938
-0.00115143
-0.000667923
0.000221839
0.00167435
0.0039144
0.00739935
-0.000145579
-0.000172906
-0.000226282
-0.000295721
-0.000374797
-0.000448556
-0.000492643
-0.000471076
-0.000359472
-0.000141268
0.000176523
0.000569963
0.000986182
0.00135294
0.00156802
0.00150253
0.00100538
-0.000124386
-0.00212324
-0.00550251
-0.000185873
-0.000218742
-0.000280665
-0.000364551
-0.00047221
-0.000602289
-0.000759033
-0.000937176
-0.00112521
-0.00129677
-0.00141949
-0.00144956
-0.00133398
-0.00100918
-0.000404724
0.000563392
0.00199863
0.00403521
0.00679669
0.010626
-0.00710952
-0.00631395
-0.00360713
-0.000968689
0.00109508
0.00253802
0.0034142
0.0037951
0.00375597
0.00339218
0.00280959
0.0021073
0.00138494
0.000749367
0.00027924
-1.2166e-05
-0.000176973
-0.000294197
-0.000408528
-0.000496157
-0.000530714
-0.000554102
-0.000623007
-0.000739282
-0.000891575
-0.00110548
-0.00139459
-0.00172196
-0.00203871
-0.00232652
-0.0025887
-0.00281747
-0.00299765
-0.00312753
-0.00323018
-0.00334114
-0.00348143
-0.0036587
-0.00388365
-0.00417444
-0.00454962
-0.00500988
-0.00552051
-0.00602095
-0.00645864
-0.00682263
-0.00715265
-0.00751431
-0.00795759
-0.00848583
-0.00903113
-0.00949758
-0.0098342
-0.010076
-0.010299
-0.0105434
-0.0107806
-0.0109354
-0.0109568
-0.0108677
-0.0107399
-0.0106385
-0.0105681
-0.0104821
-0.0103635
-0.010246
-0.0101728
-0.0101629
-0.0101897
-0.0102074
-0.010224
-0.0102842
-0.0103858
-0.0104932
-0.0106026
-0.0107315
-0.0108811
-0.0110417
-0.0112023
-0.0113536
-0.0114958
-0.0116323
-0.011757
-0.0118681
-0.0119784
-0.0120985
-0.0122272
-0.0123655
-0.012516
-0.0126697
-0.0128127
-0.0129453
-0.0130799
-0.0132232
-0.0133712
-0.0135181
-0.0136636
-0.0138103
-0.0139592
-0.01411
-0.0142622
-0.0144158
-0.0145709
-0.0147272
-0.0148847
-0.0150436
-0.0152048
-0.0153685
-0.0155341
-0.0157017
-0.0158703
-0.0160395
-0.0162093
-0.0163805
-0.0165539
-0.0167306
-0.0169115
-0.0170967
-0.0172862
-0.0174797
-0.0176766
-0.0178765
-0.0180788
-0.0182833
-0.0184896
-0.0186978
-0.0189079
-0.0191201
-0.0193343
-0.019551
-0.0197699
-0.0199914
-0.020215
-0.0204411
-0.0206692
-0.0208997
-0.0211321
-0.0213669
-0.0216036
-0.0218426
-0.0220835
-0.0223269
-0.0225723
-0.0228201
-0.02307
-0.0233223
-0.0235769
-0.0238336
-0.0240932
-0.0243544
-0.0246189
-0.0248848
-0.0251542
-0.0254249
-0.0256992
-0.0259751
-0.0262541
-0.0265354
-0.0268191
-0.0271059
-0.0273944
-0.0276868
-0.0279804
-0.028278
-0.0285772
-0.0288798
-0.029185
-0.0294926
-0.0298038
-0.0301167
-0.0304334
-0.0307524
-0.0310743
-0.0313996
-0.0317269
-0.0320582
-0.0323915
-0.0327284
-0.0330681
-0.0334105
-0.0337565
-0.0341052
-0.0344566
-0.0348122
-0.0351687
-0.0355311
-0.0358934
-0.0362612
-0.0366301
-0.0370022
-0.0373777
-0.0377532
-0.0381335
-0.0385124
-0.0388896
-0.0392729
-0.0396324
-0.0399948
-0.0403088
-0.0405653
-0.00769457
-0.0067404
-0.00387512
-0.00114676
0.00101222
0.00255649
0.00349998
0.00388977
0.00381755
0.00341197
0.00280159
0.00208962
0.00136735
0.000732455
0.000262965
-2.81672e-05
-0.000195
-0.000314006
-0.000428288
-0.000516116
-0.000550154
-0.000570784
-0.000637856
-0.000754225
-0.000904601
-0.00111529
-0.00140444
-0.00173407
-0.00205029
-0.00233448
-0.00259446
-0.00282396
-0.00300518
-0.00313464
-0.00323665
-0.00334961
-0.00349532
-0.00367858
-0.00390666
-0.00419666
-0.00456728
-0.00502037
-0.0055253
-0.00602253
-0.00645744
-0.00681886
-0.00714526
-0.00750204
-0.0079416
-0.00846476
-0.00900566
-0.00946776
-0.00980088
-0.0100417
-0.010267
-0.0105149
-0.0107555
-0.0109128
-0.010936
-0.0108494
-0.010725
-0.0106276
-0.0105602
-0.0104749
-0.0103561
-0.0102405
-0.0101687
-0.0101596
-0.0101872
-0.0102045
-0.0102211
-0.010283
-0.0103851
-0.0104919
-0.0106007
-0.0107295
-0.0108789
-0.0110393
-0.0112
-0.0113513
-0.0114937
-0.0116304
-0.0117554
-0.0118666
-0.011977
-0.0120973
-0.0122262
-0.0123646
-0.0125152
-0.012669
-0.012812
-0.0129446
-0.0130793
-0.0132228
-0.0133709
-0.0135178
-0.0136634
-0.0138101
-0.0139592
-0.01411
-0.0142622
-0.0144159
-0.0145709
-0.0147273
-0.0148848
-0.0150438
-0.0152049
-0.0153687
-0.0155342
-0.0157019
-0.0158706
-0.0160398
-0.0162097
-0.0163809
-0.0165543
-0.016731
-0.0169118
-0.0170969
-0.0172863
-0.0174797
-0.0176766
-0.0178765
-0.0180788
-0.0182832
-0.0184895
-0.0186977
-0.0189078
-0.0191199
-0.0193342
-0.0195509
-0.0197699
-0.0199913
-0.020215
-0.0204411
-0.0206692
-0.0208997
-0.0211321
-0.0213669
-0.0216035
-0.0218426
-0.0220835
-0.0223269
-0.0225723
-0.0228201
-0.02307
-0.0233223
-0.0235769
-0.0238336
-0.0240932
-0.0243544
-0.0246189
-0.0248848
-0.0251542
-0.0254249
-0.0256992
-0.0259751
-0.0262541
-0.0265354
-0.0268191
-0.0271059
-0.0273944
-0.0276868
-0.0279804
-0.028278
-0.0285772
-0.0288798
-0.029185
-0.0294926
-0.0298038
-0.0301167
-0.0304334
-0.0307524
-0.0310743
-0.0313996
-0.0317269
-0.0320582
-0.0323915
-0.0327284
-0.0330681
-0.0334105
-0.0337565
-0.0341052
-0.0344566
-0.0348122
-0.0351687
-0.0355311
-0.0358934
-0.0362612
-0.0366301
-0.0370022
-0.0373777
-0.0377532
-0.0381335
-0.0385124
-0.0388896
-0.039273
-0.0396324
-0.0399951
-0.0403098
-0.0405663
-0.00770178
-0.00716499
-0.00452884
-0.00173588
0.000678121
0.00248855
0.00361291
0.00405263
0.00393251
0.00345087
0.00278587
0.00205388
0.00133256
0.000703323
0.000239409
-4.7995e-05
-0.000215999
-0.000338834
-0.00045451
-0.000542075
-0.000575417
-0.000593348
-0.000657755
-0.000773437
-0.000921635
-0.00112776
-0.00141605
-0.00174835
-0.00206323
-0.0023408
-0.00259563
-0.00282545
-0.00300827
-0.00313702
-0.00323817
-0.00335489
-0.0035114
-0.00370971
-0.00395048
-0.00424594
-0.00461334
-0.0050534
-0.00553802
-0.00601383
-0.00643348
-0.0067902
-0.00712229
-0.00748738
-0.00792455
-0.00842791
-0.00894136
-0.00938474
-0.00971383
-0.00996026
-0.010191
-0.0104378
-0.0106715
-0.0108251
-0.0108555
-0.0107843
-0.0106761
-0.0105892
-0.0105267
-0.0104465
-0.0103368
-0.0102314
-0.0101663
-0.0101595
-0.0101879
-0.0102084
-0.010229
-0.0102912
-0.0103916
-0.0104968
-0.010605
-0.0107331
-0.0108811
-0.0110393
-0.011198
-0.0113481
-0.0114898
-0.011626
-0.0117512
-0.0118635
-0.0119753
-0.0120966
-0.0122259
-0.012364
-0.0125139
-0.0126669
-0.0128097
-0.0129428
-0.0130781
-0.0132217
-0.0133696
-0.0135165
-0.0136621
-0.013809
-0.0139581
-0.014109
-0.0142613
-0.014415
-0.0145701
-0.0147265
-0.0148841
-0.0150432
-0.0152045
-0.0153684
-0.0155339
-0.0157016
-0.0158703
-0.0160396
-0.0162095
-0.0163807
-0.0165542
-0.016731
-0.0169119
-0.017097
-0.0172865
-0.01748
-0.0176769
-0.0178767
-0.018079
-0.0182834
-0.0184898
-0.018698
-0.018908
-0.0191202
-0.0193344
-0.0195511
-0.01977
-0.0199914
-0.020215
-0.0204411
-0.0206692
-0.0208998
-0.0211322
-0.0213669
-0.0216036
-0.0218426
-0.0220835
-0.0223269
-0.0225723
-0.0228201
-0.02307
-0.0233223
-0.0235769
-0.0238336
-0.0240932
-0.0243544
-0.0246189
-0.0248848
-0.0251542
-0.0254249
-0.0256992
-0.0259751
-0.0262541
-0.0265354
-0.0268191
-0.0271059
-0.0273944
-0.0276868
-0.0279804
-0.028278
-0.0285772
-0.0288798
-0.029185
-0.0294926
-0.0298038
-0.0301167
-0.0304334
-0.0307524
-0.0310743
-0.0313996
-0.0317269
-0.0320582
-0.0323915
-0.0327284
-0.0330681
-0.0334105
-0.0337565
-0.0341052
-0.0344566
-0.0348122
-0.0351687
-0.0355311
-0.0358934
-0.0362612
-0.0366301
-0.0370022
-0.0373778
-0.0377532
-0.0381335
-0.0385125
-0.0388897
-0.0392732
-0.0396328
-0.0399959
-0.0403128
-0.0405692
-0.00557557
-0.0057782
-0.00500442
-0.00271316
5.63504e-05
0.0022883
0.00364831
0.00413842
0.00397069
0.00342547
0.00271743
0.00197088
0.00125525
0.000638394
0.000186313
-9.28523e-05
-0.000259013
-0.00038386
-0.000498597
-0.000582995
-0.000613214
-0.000626039
-0.00068521
-0.000798614
-0.000944263
-0.00114555
-0.00143283
-0.00176821
-0.00208201
-0.00235292
-0.00260258
-0.00283297
-0.00301786
-0.00314667
-0.00324926
-0.00337331
-0.00354421
-0.00375954
-0.00401227
-0.00430951
-0.00466687
-0.00508468
-0.00553943
-0.00599031
-0.00639898
-0.00675908
-0.00710347
-0.00747685
-0.0079045
-0.00837937
-0.00886078
-0.00928519
-0.0096136
-0.00986792
-0.0101024
-0.0103448
-0.0105702
-0.0107218
-0.0107621
-0.0107088
-0.0106189
-0.0105438
-0.0104873
-0.0104146
-0.0103157
-0.010222
-0.0101656
-0.01016
-0.0101872
-0.0102108
-0.0102353
-0.0102978
-0.0103965
-0.0105006
-0.0106085
-0.0107361
-0.0108824
-0.0110372
-0.0111925
-0.0113409
-0.0114817
-0.0116172
-0.0117429
-0.0118571
-0.0119709
-0.0120932
-0.012223
-0.0123611
-0.0125099
-0.0126618
-0.0128045
-0.0129385
-0.0130745
-0.0132184
-0.0133662
-0.0135131
-0.013659
-0.0138061
-0.0139555
-0.0141066
-0.014259
-0.0144129
-0.0145682
-0.0147248
-0.0148825
-0.0150419
-0.0152034
-0.0153669
-0.015533
-0.0157007
-0.0158695
-0.0160389
-0.0162091
-0.0163807
-0.0165547
-0.0167318
-0.0169128
-0.017098
-0.0172875
-0.0174808
-0.0176775
-0.0178772
-0.0180794
-0.0182837
-0.0184899
-0.018698
-0.018908
-0.0191202
-0.0193344
-0.0195511
-0.01977
-0.0199914
-0.0202151
-0.0204412
-0.0206693
-0.0208998
-0.0211321
-0.0213669
-0.0216035
-0.0218426
-0.0220835
-0.0223269
-0.0225723
-0.0228201
-0.02307
-0.0233223
-0.0235769
-0.0238336
-0.0240932
-0.0243544
-0.0246189
-0.0248848
-0.0251542
-0.0254249
-0.0256992
-0.0259751
-0.0262541
-0.0265354
-0.0268191
-0.0271059
-0.0273944
-0.0276868
-0.0279804
-0.028278
-0.0285772
-0.0288798
-0.029185
-0.0294926
-0.0298038
-0.0301167
-0.0304334
-0.0307524
-0.0310743
-0.0313996
-0.0317269
-0.0320582
-0.0323915
-0.0327284
-0.0330681
-0.0334105
-0.0337565
-0.0341052
-0.0344566
-0.0348123
-0.0351687
-0.0355311
-0.0358934
-0.0362612
-0.0366302
-0.0370023
-0.0373778
-0.0377533
-0.0381336
-0.0385126
-0.0388899
-0.0392735
-0.0396335
-0.0399971
-0.0403168
-0.0405734
-0.00846818
-0.00807088
-0.00540651
-0.00228641
0.000539935
0.00263232
0.00385541
0.0042479
0.00402152
0.00344144
0.00271077
0.00195004
0.00122834
0.00061019
0.000159001
-0.000118915
-0.000285424
-0.000410888
-0.00052386
-0.000607342
-0.000638028
-0.000647067
-0.000700226
-0.000811812
-0.000957872
-0.00115712
-0.0014438
-0.00178248
-0.00209678
-0.00236292
-0.00260784
-0.00283813
-0.00302531
-0.00315578
-0.00326171
-0.00339315
-0.00357632
-0.00380568
-0.00406737
-0.00436272
-0.00470517
-0.00509904
-0.00552912
-0.00596417
-0.00636991
-0.00673539
-0.007085
-0.00745381
-0.00786235
-0.0083104
-0.00876691
-0.00917794
-0.00950725
-0.00976671
-0.0100019
-0.0102398
-0.010459
-0.0106106
-0.0106615
-0.010626
-0.0105542
-0.0104911
-0.0104411
-0.0103761
-0.010288
-0.0102062
-0.0101592
-0.010156
-0.0101826
-0.0102099
-0.0102396
-0.0103032
-0.0104004
-0.0105037
-0.0106109
-0.0107374
-0.0108816
-0.0110327
-0.0111844
-0.0113313
-0.0114716
-0.0116067
-0.0117331
-0.0118495
-0.0119654
-0.0120888
-0.0122192
-0.0123573
-0.0125052
-0.0126557
-0.0127983
-0.0129333
-0.0130703
-0.0132144
-0.013362
-0.013509
-0.0136552
-0.0138027
-0.0139523
-0.0141036
-0.0142562
-0.0144102
-0.0145657
-0.0147225
-0.0148805
-0.0150401
-0.0152017
-0.0153655
-0.0155317
-0.0156994
-0.0158683
-0.016038
-0.0162086
-0.0163806
-0.0165549
-0.0167323
-0.0169135
-0.0170988
-0.0172882
-0.0174815
-0.0176781
-0.0178776
-0.0180797
-0.0182839
-0.0184901
-0.0186982
-0.0189083
-0.0191205
-0.0193347
-0.0195514
-0.0197703
-0.0199917
-0.0202153
-0.0204413
-0.0206694
-0.0208999
-0.0211322
-0.021367
-0.0216036
-0.0218427
-0.0220836
-0.022327
-0.0225723
-0.0228201
-0.02307
-0.0233223
-0.0235769
-0.0238336
-0.0240932
-0.0243544
-0.0246189
-0.0248848
-0.0251542
-0.0254249
-0.0256992
-0.0259751
-0.0262541
-0.0265354
-0.0268191
-0.0271059
-0.0273944
-0.0276868
-0.0279804
-0.028278
-0.0285772
-0.0288798
-0.029185
-0.0294926
-0.0298038
-0.0301167
-0.0304334
-0.0307524
-0.0310743
-0.0313996
-0.0317269
-0.0320582
-0.0323915
-0.0327284
-0.0330681
-0.0334105
-0.0337566
-0.0341052
-0.0344566
-0.0348123
-0.0351688
-0.0355311
-0.0358934
-0.0362612
-0.0366302
-0.0370023
-0.0373779
-0.0377533
-0.0381337
-0.0385128
-0.0388902
-0.0392738
-0.0396344
-0.0399985
-0.0403213
-0.0405782
-0.009333
-0.00846935
-0.00507261
-0.00161013
0.0011424
0.00302883
0.00404248
0.00430309
0.00401899
0.0034193
0.00268315
0.0019205
0.00119441
0.00056901
0.00011245
-0.000166158
-0.00032998
-0.000449279
-0.000554355
-0.000635734
-0.000669779
-0.000676075
-0.000720214
-0.000827803
-0.000975886
-0.00117503
-0.0014598
-0.00180006
-0.00211576
-0.00237849
-0.00261843
-0.00284737
-0.00303667
-0.00316977
-0.00327894
-0.0034157
-0.00360722
-0.00384663
-0.00411514
-0.00440817
-0.00473728
-0.00511295
-0.00552702
-0.00595124
-0.00635255
-0.00671612
-0.00706006
-0.0074172
-0.00780989
-0.00824006
-0.00867829
-0.00907679
-0.0094027
-0.00966279
-0.00989763
-0.0101323
-0.0103465
-0.0104978
-0.0105584
-0.0105402
-0.0104864
-0.0104354
-0.0103925
-0.0103359
-0.0102594
-0.0101896
-0.0101524
-0.0101527
-0.0101791
-0.0102098
-0.0102446
-0.0103087
-0.0104042
-0.0105064
-0.0106128
-0.0107382
-0.0108807
-0.0110284
-0.0111768
-0.0113223
-0.0114621
-0.0115966
-0.0117237
-0.0118423
-0.01196
-0.0120843
-0.0122152
-0.0123532
-0.0125
-0.0126494
-0.0127919
-0.0129278
-0.0130657
-0.01321
-0.0133576
-0.0135045
-0.013651
-0.0137989
-0.0139487
-0.0141002
-0.014253
-0.0144072
-0.0145629
-0.0147199
-0.0148782
-0.0150381
-0.0151999
-0.0153639
-0.0155301
-0.0156981
-0.015867
-0.016037
-0.0162079
-0.0163804
-0.016555
-0.0167328
-0.0169142
-0.0170997
-0.0172891
-0.0174823
-0.0176788
-0.0178782
-0.0180801
-0.0182843
-0.0184904
-0.0186985
-0.0189085
-0.0191207
-0.0193349
-0.0195516
-0.0197705
-0.0199918
-0.0202154
-0.0204414
-0.0206694
-0.0208999
-0.0211322
-0.021367
-0.0216036
-0.0218426
-0.0220835
-0.0223269
-0.0225723
-0.0228201
-0.02307
-0.0233223
-0.0235769
-0.0238336
-0.0240932
-0.0243544
-0.0246189
-0.0248848
-0.0251542
-0.0254249
-0.0256992
-0.0259751
-0.0262541
-0.0265354
-0.0268191
-0.0271059
-0.0273944
-0.0276868
-0.0279804
-0.028278
-0.0285772
-0.0288798
-0.029185
-0.0294926
-0.0298038
-0.0301167
-0.0304335
-0.0307523
-0.0310743
-0.0313996
-0.0317269
-0.0320582
-0.0323915
-0.0327284
-0.0330682
-0.0334105
-0.0337566
-0.0341052
-0.0344566
-0.0348123
-0.0351688
-0.0355311
-0.0358935
-0.0362612
-0.0366303
-0.0370023
-0.0373779
-0.0377534
-0.0381338
-0.0385129
-0.0388906
-0.0392742
-0.0396355
-0.0400003
-0.0403259
-0.0405833
-0.00970285
-0.00894141
-0.00536547
-0.00168627
0.00119712
0.00312257
0.00409882
0.00429174
0.00396057
0.00335028
0.00262448
0.00187236
0.00114696
0.000511051
4.19784e-05
-0.000239114
-0.000394852
-0.000501469
-0.000594603
-0.000671433
-0.000707966
-0.000712321
-0.000747651
-0.000850314
-0.00100008
-0.00119946
-0.00148181
-0.001823
-0.00214042
-0.00239977
-0.00263391
-0.00286025
-0.00305116
-0.00318677
-0.00329858
-0.00343982
-0.00363845
-0.00388665
-0.00416215
-0.0044557
-0.00477552
-0.00513591
-0.00553398
-0.0059433
-0.0063331
-0.00668661
-0.00702025
-0.00736989
-0.00775669
-0.00817534
-0.00859496
-0.00897532
-0.00929221
-0.00955199
-0.00978875
-0.0100225
-0.0102321
-0.010382
-0.0104514
-0.0104505
-0.0104154
-0.0103772
-0.0103415
-0.0102939
-0.0102295
-0.0101716
-0.0101437
-0.0101479
-0.0101744
-0.0102084
-0.0102481
-0.0103133
-0.0104074
-0.0105089
-0.0106147
-0.0107392
-0.0108798
-0.0110242
-0.0111691
-0.0113129
-0.011452
-0.0115859
-0.0117136
-0.0118342
-0.0119538
-0.0120791
-0.0122105
-0.0123486
-0.0124944
-0.0126427
-0.0127851
-0.0129219
-0.0130606
-0.0132051
-0.0133526
-0.0134996
-0.0136464
-0.0137946
-0.0139447
-0.0140964
-0.0142494
-0.0144038
-0.0145598
-0.014717
-0.0148756
-0.0150357
-0.0151978
-0.015362
-0.0155284
-0.0156963
-0.0158656
-0.0160358
-0.0162071
-0.0163799
-0.0165551
-0.0167333
-0.016915
-0.0171006
-0.0172901
-0.0174832
-0.0176796
-0.0178788
-0.0180806
-0.0182846
-0.0184907
-0.0186987
-0.0189087
-0.0191209
-0.0193352
-0.0195518
-0.0197707
-0.0199921
-0.0202156
-0.0204416
-0.0206696
-0.0209
-0.0211323
-0.0213671
-0.0216036
-0.0218427
-0.0220836
-0.022327
-0.0225723
-0.0228201
-0.02307
-0.0233223
-0.0235769
-0.0238336
-0.0240932
-0.0243544
-0.0246189
-0.0248848
-0.0251542
-0.0254249
-0.0256992
-0.0259751
-0.0262541
-0.0265354
-0.0268191
-0.0271059
-0.0273944
-0.0276868
-0.0279804
-0.028278
-0.0285772
-0.0288798
-0.029185
-0.0294926
-0.0298038
-0.0301167
-0.0304335
-0.0307523
-0.0310743
-0.0313996
-0.0317269
-0.0320582
-0.0323915
-0.0327284
-0.0330682
-0.0334105
-0.0337566
-0.0341052
-0.0344566
-0.0348123
-0.0351688
-0.0355311
-0.0358935
-0.0362613
-0.0366303
-0.0370024
-0.037378
-0.0377535
-0.038134
-0.0385131
-0.038891
-0.0392747
-0.0396368
-0.0400022
-0.0403306
-0.0405888
-0.0102138
-0.00952439
-0.00585733
-0.00193901
0.00115833
0.00321061
0.0042283
0.00440047
0.00401931
0.00336314
0.0026131
0.00185383
0.00112399
0.000474692
-1.4068e-05
-0.000304548
-0.000452366
-0.000544529
-0.000626236
-0.000696018
-0.000730958
-0.000736725
-0.000770762
-0.000870153
-0.00101801
-0.00121617
-0.00149876
-0.0018433
-0.00216248
-0.00241731
-0.00264453
-0.00286829
-0.00306158
-0.00320078
-0.00331631
-0.00346278
-0.00366878
-0.00392476
-0.00420565
-0.00449897
-0.00481005
-0.00515423
-0.00553272
-0.00592389
-0.00630062
-0.00664626
-0.00697675
-0.0073262
-0.00770801
-0.00811108
-0.00850675
-0.00886513
-0.0091735
-0.00943628
-0.00967665
-0.0099088
-0.0101128
-0.0102608
-0.0103383
-0.0103539
-0.0103376
-0.010313
-0.0102848
-0.0102456
-0.0101933
-0.0101478
-0.0101294
-0.0101379
-0.0101657
-0.0102036
-0.0102488
-0.0103159
-0.0104086
-0.0105091
-0.0106144
-0.010738
-0.0108767
-0.0110178
-0.0111596
-0.0113021
-0.0114407
-0.011574
-0.0117021
-0.0118247
-0.0119463
-0.0120725
-0.0122044
-0.0123426
-0.0124877
-0.012635
-0.0127773
-0.0129149
-0.0130546
-0.0131994
-0.0133469
-0.013494
-0.0136412
-0.0137898
-0.0139403
-0.0140922
-0.0142455
-0.0144002
-0.0145564
-0.0147139
-0.0148728
-0.0150333
-0.0151957
-0.0153601
-0.0155266
-0.0156946
-0.015864
-0.0160345
-0.0162063
-0.0163797
-0.0165553
-0.0167338
-0.0169158
-0.0171015
-0.017291
-0.017484
-0.0176802
-0.0178794
-0.018081
-0.0182849
-0.0184909
-0.018699
-0.018909
-0.0191212
-0.0193355
-0.0195521
-0.019771
-0.0199923
-0.0202158
-0.0204418
-0.0206697
-0.0209001
-0.0211324
-0.0213671
-0.0216036
-0.0218427
-0.0220836
-0.022327
-0.0225723
-0.0228201
-0.02307
-0.0233223
-0.0235769
-0.0238336
-0.0240932
-0.0243544
-0.0246189
-0.0248848
-0.0251542
-0.0254249
-0.0256992
-0.0259751
-0.0262541
-0.0265354
-0.0268191
-0.0271059
-0.0273944
-0.0276868
-0.0279804
-0.028278
-0.0285772
-0.0288798
-0.029185
-0.0294926
-0.0298038
-0.0301167
-0.0304335
-0.0307523
-0.0310744
-0.0313996
-0.0317269
-0.0320582
-0.0323915
-0.0327284
-0.0330682
-0.0334105
-0.0337566
-0.0341052
-0.0344567
-0.0348123
-0.0351688
-0.0355312
-0.0358936
-0.0362613
-0.0366304
-0.0370024
-0.0373781
-0.0377537
-0.0381342
-0.0385134
-0.0388915
-0.0392753
-0.0396383
-0.0400044
-0.0403353
-0.0405945
-0.0104995
-0.00989016
-0.00621424
-0.00215092
0.00111216
0.0032924
0.004382
0.00455723
0.00412848
0.00340717
0.00260769
0.00182554
0.00108791
0.000430082
-7.55538e-05
-0.000379638
-0.00052168
-0.000596105
-0.000664829
-0.000725441
-0.000751406
-0.000755859
-0.000795962
-0.000898534
-0.00104231
-0.00123509
-0.00151923
-0.00187082
-0.00219298
-0.00244061
-0.0026572
-0.00287757
-0.00307504
-0.0032204
-0.00334044
-0.00349125
-0.00370342
-0.00396504
-0.00424746
-0.00453641
-0.00483741
-0.00516664
-0.00552829
-0.00590504
-0.00627264
-0.00661535
-0.00694559
-0.00729
-0.00765678
-0.0080368
-0.00840881
-0.00875128
-0.00905588
-0.00932263
-0.00956483
-0.00979258
-0.00999062
-0.0101378
-0.0102232
-0.0102544
-0.0102565
-0.0102468
-0.0102276
-0.0101964
-0.0101559
-0.0101236
-0.0101152
-0.0101281
-0.0101575
-0.0101994
-0.0102501
-0.0103189
-0.01041
-0.0105091
-0.0106142
-0.0107375
-0.0108745
-0.0110124
-0.0111512
-0.0112924
-0.0114303
-0.0115628
-0.0116913
-0.0118158
-0.0119392
-0.0120662
-0.0121987
-0.012337
-0.0124815
-0.0126278
-0.0127701
-0.0129086
-0.013049
-0.0131941
-0.0133415
-0.0134887
-0.0136362
-0.0137852
-0.013936
-0.0140881
-0.0142416
-0.0143966
-0.014553
-0.0147108
-0.01487
-0.0150308
-0.0151934
-0.015358
-0.0155245
-0.0156927
-0.0158624
-0.0160332
-0.0162054
-0.0163792
-0.0165553
-0.0167342
-0.0169164
-0.0171023
-0.0172918
-0.0174848
-0.0176809
-0.0178799
-0.0180815
-0.0182853
-0.0184913
-0.0186993
-0.0189093
-0.0191214
-0.0193357
-0.0195523
-0.0197712
-0.0199925
-0.020216
-0.0204419
-0.0206698
-0.0209002
-0.0211324
-0.0213671
-0.0216037
-0.0218427
-0.0220836
-0.022327
-0.0225723
-0.0228201
-0.02307
-0.0233223
-0.0235769
-0.0238336
-0.0240932