/*--------------------------------*- C++ -*----------------------------------*\
| =========                 |                                                 |
| \\      /  F ield         | OpenFOAM: The Open Source CFD Toolbox           |
|  \\    /   O peration     | Version:  v2012                                 |
|   \\  /    A nd           | Website:  www.openfoam.com                      |
|    \\/     M anipulation  |                                                 |
\*---------------------------------------------------------------------------*/
FoamFile
{
    version     2.0;
    format      ascii;
    class       surfaceScalarField;
    location    "0.3";
    object      phi;
}
// * * * * * * * * * * * * * * * * * * * * * * * * * * * * * * * * * * * * * //

dimensions      [0 3 -1 0 0 0 0];
oriented        oriented;


internalField   nonuniform List<scalar> 
17340
(
3.876e-06
-1.04518e-07
3.88252e-06
6.57547e-08
3.87574e-06
-5.91784e-08
3.88227e-06
8.85868e-08
3.87768e-06
-1.99666e-08
3.88279e-06
1.32542e-08
3.87512e-06
-5.75302e-08
3.88289e-06
-2.45131e-08
3.87425e-06
-4.93123e-08
3.88087e-06
6.77319e-10
3.87638e-06
1.02843e-08
3.88111e-06
4.55286e-08
3.87789e-06
8.36244e-09
3.878e-06
1.73343e-08
3.87409e-06
4.04844e-09
3.87706e-06
1.36669e-08
3.87349e-06
1.29531e-08
3.86813e-06
1.63457e-08
3.85514e-06
1.94972e-08
2.68668e-08
3.84005e-06
4.17947e-06
-9.8126e-08
4.19136e-06
5.3864e-08
4.18123e-06
-4.90543e-08
4.19136e-06
7.84584e-08
4.18435e-06
-1.29503e-08
4.19099e-06
6.61006e-09
4.18204e-06
-4.85793e-08
4.18897e-06
-3.14468e-08
4.18152e-06
-4.18561e-08
4.18571e-06
-3.51135e-09
4.18521e-06
1.07808e-08
4.1856e-06
4.51366e-08
4.18972e-06
4.24618e-09
4.18394e-06
2.31109e-08
4.18927e-06
-1.28038e-09
4.18479e-06
1.81504e-08
4.18645e-06
1.12899e-08
4.1761e-06
2.66906e-08
4.17092e-06
2.46785e-08
4.47252e-08
4.15306e-06
4.51306e-06
-9.11259e-08
4.5235e-06
4.34223e-08
4.51323e-06
-3.87845e-08
4.52264e-06
6.90522e-08
4.51535e-06
-5.66223e-09
4.52125e-06
7.1674e-10
4.5134e-06
-4.07344e-08
4.51704e-06
-3.50848e-08
4.51107e-06
-3.58916e-08
4.51438e-06
-6.81662e-09
4.51252e-06
1.26408e-08
4.51726e-06
4.0392e-08
4.51537e-06
6.13804e-09
4.51433e-06
2.4157e-08
4.51607e-06
-3.01993e-09
4.51718e-06
1.70378e-08
4.51873e-06
9.73463e-09
4.50598e-06
3.94469e-08
4.48942e-06
4.12391e-08
6.15362e-08
4.47261e-06
4.87419e-06
-8.43728e-08
4.88418e-06
3.34411e-08
4.87331e-06
-2.79152e-08
4.88311e-06
5.92528e-08
4.87478e-06
2.65901e-09
4.88178e-06
-6.28141e-09
4.87248e-06
-3.14311e-08
4.87734e-06
-3.99427e-08
4.86735e-06
-2.59039e-08
4.87647e-06
-1.59351e-08
4.86536e-06
2.37445e-08
4.88443e-06
2.13237e-08
4.86762e-06
2.29542e-08
4.88627e-06
5.50291e-09
4.86787e-06
1.53786e-08
4.87776e-06
7.14561e-09
4.87491e-06
1.25862e-08
4.92573e-06
-1.13714e-08
4.97678e-06
-9.80575e-09
-4.69529e-09
5.04301e-06
5.26373e-06
-7.74553e-08
5.27402e-06
2.31479e-08
5.26315e-06
-1.70434e-08
5.27226e-06
5.01401e-08
5.26533e-06
9.58891e-09
5.26946e-06
-1.04099e-08
5.26491e-06
-2.68833e-08
5.2616e-06
-3.66294e-08
5.26305e-06
-2.73576e-08
5.25596e-06
-8.8356e-09
5.26362e-06
1.60826e-08
5.26068e-06
2.42584e-08
5.26242e-06
2.12201e-08
5.26081e-06
7.10925e-09
5.26259e-06
1.35944e-08
5.26327e-06
6.47328e-09
5.26237e-06
1.34873e-08
5.24984e-06
1.15462e-09
5.23388e-06
6.15052e-09
1.33302e-08
5.21586e-06
5.6842e-06
-7.01981e-08
5.69525e-06
1.21028e-08
5.68382e-06
-5.61587e-09
5.69307e-06
4.08883e-08
5.6859e-06
1.6758e-08
5.68998e-06
-1.44883e-08
5.68531e-06
-2.22077e-08
5.68226e-06
-3.35823e-08
5.68336e-06
-2.84633e-08
5.67551e-06
-9.80358e-10
5.68564e-06
5.95058e-09
5.67802e-06
3.18742e-08
5.68717e-06
1.20733e-08
5.67965e-06
1.46289e-08
5.68365e-06
9.59553e-09
5.67626e-06
1.38599e-08
5.68034e-06
9.4159e-09
5.67048e-06
1.10069e-08
5.66664e-06
9.99138e-09
2.94482e-08
5.65052e-06
6.1384e-06
-6.27241e-08
6.14964e-06
8.60579e-10
6.13902e-06
4.99878e-09
6.14683e-06
3.30821e-08
6.14141e-06
2.21804e-08
6.14271e-06
-1.57941e-08
6.1408e-06
-2.02964e-08
6.1355e-06
-2.82812e-08
6.13637e-06
-2.93373e-08
6.13179e-06
3.60687e-09
6.13424e-06
3.49621e-09
6.13475e-06
3.13648e-08
6.13362e-06
1.32067e-08
6.1345e-06
1.37469e-08
6.13182e-06
1.22746e-08
6.13162e-06
1.406e-08
6.12882e-06
1.22128e-08
6.12371e-06
1.61256e-08
6.11606e-06
1.7632e-08
3.41263e-08
6.11139e-06
6.62913e-06
-5.52925e-08
6.63977e-06
-9.77548e-09
6.6319e-06
1.28623e-08
6.63566e-06
2.93229e-08
6.63515e-06
2.26872e-08
6.62946e-06
-1.00952e-08
6.63446e-06
-2.53052e-08
6.62327e-06
-1.70885e-08
6.62808e-06
-3.41482e-08
6.62132e-06
1.03696e-08
6.62392e-06
8.94312e-10
6.6234e-06
3.18911e-08
6.62423e-06
1.23715e-08
6.62126e-06
1.67211e-08
6.62191e-06
1.16227e-08
6.61925e-06
1.67164e-08
6.61721e-06
1.42545e-08
6.6125e-06
2.08361e-08
6.60521e-06
2.49222e-08
3.9563e-08
6.59977e-06
7.15899e-06
-4.78543e-08
7.16935e-06
-2.01296e-08
7.16268e-06
1.95334e-08
7.16581e-06
2.61914e-08
7.16419e-06
2.43041e-08
7.16194e-06
-7.84454e-09
7.1585e-06
-2.18684e-08
7.16066e-06
-1.92435e-08
7.14745e-06
-2.09418e-08
7.16076e-06
-2.94026e-09
7.14568e-06
1.59774e-08
7.16e-06
1.75668e-08
7.15018e-06
2.2196e-08
7.15215e-06
1.47514e-08
7.14764e-06
1.61307e-08
7.14737e-06
1.69851e-08
7.14346e-06
1.81614e-08
7.14368e-06
2.06156e-08
7.14333e-06
2.52715e-08
3.41245e-08
7.14877e-06
7.73179e-06
-4.10424e-08
7.73941e-06
-2.77475e-08
7.73853e-06
2.04178e-08
7.7345e-06
3.02124e-08
7.74013e-06
1.86743e-08
7.72995e-06
2.34346e-09
7.73395e-06
-2.58761e-08
7.72807e-06
-1.33614e-08
7.72436e-06
-1.72294e-08
7.72489e-06
-3.46933e-09
7.72219e-06
1.86764e-08
7.72235e-06
1.741e-08
7.72262e-06
2.19175e-08
7.71991e-06
1.74668e-08
7.71889e-06
1.71463e-08
7.71735e-06
1.85273e-08
7.7149e-06
2.06155e-08
7.71151e-06
2.40039e-08
7.70623e-06
3.05525e-08
3.96015e-08
7.70075e-06
8.35001e-06
-3.45957e-08
8.35615e-06
-3.38788e-08
8.35671e-06
1.98531e-08
8.35355e-06
3.33674e-08
8.35604e-06
1.61933e-08
8.35094e-06
7.44173e-09
8.34831e-06
-2.3253e-08
8.34631e-06
-1.13563e-08
8.34345e-06
-1.43666e-08
8.33752e-06
2.45347e-09
8.34302e-06
1.31807e-08
8.33668e-06
2.37476e-08
8.33958e-06
1.90158e-08
8.33594e-06
2.11069e-08
8.33524e-06
1.78462e-08
8.33242e-06
2.13536e-08
8.33052e-06
2.25092e-08
8.32737e-06
2.71622e-08
8.3261e-06
3.18216e-08
3.86176e-08
8.32708e-06
9.01821e-06
-2.91611e-08
9.02009e-06
-3.57535e-08
9.0254e-06
1.45381e-08
9.0204e-06
3.83648e-08
9.02201e-06
1.45858e-08
9.02069e-06
8.76576e-09
9.01211e-06
-1.46767e-08
9.01568e-06
-1.49278e-08
9.00792e-06
-6.59947e-09
9.0061e-06
4.26888e-09
9.00569e-06
1.35906e-08
9.00504e-06
2.43952e-08
9.00257e-06
2.14941e-08
9.00203e-06
2.1637e-08
8.99962e-06
2.02571e-08
8.99826e-06
2.27128e-08
8.99583e-06
2.49465e-08
8.99415e-06
2.88445e-08
8.99281e-06
3.31532e-08
3.90233e-08
8.99241e-06
9.73949e-06
-2.4552e-08
9.73789e-06
-3.41518e-08
9.7454e-06
7.02519e-09
9.74223e-06
4.15405e-08
9.74157e-06
1.52433e-08
9.74162e-06
8.71672e-09
9.73326e-06
-6.31241e-09
9.73324e-06
-1.49124e-08
9.72897e-06
-2.32758e-09
9.72556e-06
7.681e-09
9.72371e-06
1.54335e-08
9.72461e-06
2.35036e-08
9.72172e-06
2.43815e-08
9.72018e-06
2.31734e-08
9.71821e-06
2.22326e-08
9.71682e-06
2.41004e-08
9.71477e-06
2.69964e-08
9.71377e-06
2.98416e-08
9.71389e-06
3.30321e-08
3.76172e-08
9.7153e-06
1.05183e-05
-2.07996e-08
1.05139e-05
-2.96915e-08
1.05216e-05
-7.34808e-10
1.05227e-05
4.04258e-08
1.05175e-05
2.04644e-08
1.052e-05
6.21633e-09
1.05123e-05
1.389e-09
1.05084e-05
-1.09878e-08
1.05075e-05
-1.39067e-09
1.0503e-05
1.21405e-08
1.05e-05
1.84113e-08
1.05006e-05
2.29457e-08
1.04986e-05
2.63129e-08
1.04961e-05
2.57059e-08
1.04944e-05
2.39793e-08
1.04933e-05
2.52008e-08
1.0492e-05
2.82635e-08
1.0491e-05
3.08765e-08
1.04904e-05
3.36248e-08
3.74494e-08
1.04905e-05
1.13593e-05
-1.79465e-08
1.13526e-05
-2.29769e-08
1.13599e-05
-8.05691e-09
1.13637e-05
3.66505e-08
1.13586e-05
2.55971e-08
1.13582e-05
6.56333e-09
1.13549e-05
4.67202e-09
1.1346e-05
-2.08555e-09
1.13469e-05
-2.25166e-09
1.13422e-05
1.68339e-08
1.13395e-05
2.11008e-08
1.13382e-05
2.42877e-08
1.13377e-05
2.67751e-08
1.13349e-05
2.84677e-08
1.1333e-05
2.59547e-08
1.13318e-05
2.63801e-08
1.1331e-05
2.9037e-08
1.133e-05
3.18866e-08
1.13294e-05
3.42712e-08
3.82925e-08
1.13285e-05
1.22668e-05
-1.54242e-08
1.22606e-05
-1.67139e-08
1.22634e-05
-1.0911e-08
1.2272e-05
2.80586e-08
1.22655e-05
3.2095e-08
1.22647e-05
7.37556e-09
1.22616e-05
7.78063e-09
1.22544e-05
5.08536e-09
1.22506e-05
1.57201e-09
1.22498e-05
1.76142e-08
1.22454e-05
2.54651e-08
1.22439e-05
2.57856e-08
1.22429e-05
2.77738e-08
1.22412e-05
3.02387e-08
1.22387e-05
2.84599e-08
1.22376e-05
2.7484e-08
1.22371e-05
2.94841e-08
1.22369e-05
3.21234e-08
1.22376e-05
3.35921e-08
3.56047e-08
1.22402e-05
1.32469e-05
-1.33788e-08
1.32408e-05
-1.06374e-08
1.32409e-05
-1.09619e-08
1.32502e-05
1.86967e-08
1.32472e-05
3.51292e-08
1.32431e-05
1.146e-08
1.32409e-05
9.96454e-09
1.32348e-05
1.12512e-08
1.32284e-05
7.93244e-09
1.3228e-05
1.80056e-08
1.32248e-05
2.86313e-08
1.3222e-05
2.85942e-08
1.32209e-05
2.89031e-08
1.32196e-05
3.15091e-08
1.32175e-05
3.06304e-08
1.32161e-05
2.88614e-08
1.32158e-05
2.97745e-08
1.32158e-05
3.21252e-08
1.32157e-05
3.37167e-08
3.62223e-08
1.3215e-05
1.43047e-05
-1.13074e-08
1.43003e-05
-6.26713e-09
1.42969e-05
-7.60036e-09
1.43058e-05
9.83541e-09
1.43062e-05
3.47656e-08
1.43001e-05
1.75149e-08
1.4298e-05
1.20219e-08
1.42927e-05
1.6632e-08
1.42859e-05
1.46922e-08
1.42837e-05
2.0191e-08
1.42822e-05
3.01224e-08
1.4279e-05
3.18466e-08
1.42772e-05
3.07123e-08
1.42762e-05
3.25071e-08
1.42745e-05
3.22832e-08
1.4273e-05
3.03591e-08
1.42727e-05
3.01046e-08
1.42731e-05
3.1715e-08
1.42743e-05
3.25361e-08
3.32904e-08
1.42772e-05
1.5447e-05
-9.30319e-09
1.5444e-05
-3.27663e-09
1.5439e-05
-2.57441e-09
1.54453e-05
3.46379e-09
1.54485e-05
3.16474e-08
1.54428e-05
2.31492e-08
1.54393e-05
1.55483e-08
1.54351e-05
2.08655e-08
1.54282e-05
2.15353e-08
1.54245e-05
2.39275e-08
1.54234e-05
3.11656e-08
1.54208e-05
3.44959e-08
1.54183e-05
3.31871e-08
1.54172e-05
3.36438e-08
1.5416e-05
3.34308e-08
1.54148e-05
3.15693e-08
1.54145e-05
3.04465e-08
1.54148e-05
3.13918e-08
1.54151e-05
3.22942e-08
3.32975e-08
1.5415e-05
1.66805e-05
-7.34452e-09
1.66787e-05
-1.44356e-09
1.66732e-05
2.85725e-09
1.66765e-05
2.34581e-10
1.66805e-05
2.7625e-08
1.6677e-05
2.65882e-08
1.66718e-05
2.07472e-08
1.66686e-05
2.41597e-08
1.66619e-05
2.81842e-08
1.66573e-05
2.85164e-08
1.66557e-05
3.28302e-08
1.66539e-05
3.62523e-08
1.66512e-05
3.58338e-08
1.66497e-05
3.52266e-08
1.66486e-05
3.45093e-08
1.66476e-05
3.25147e-08
1.66473e-05
3.08065e-08
1.66481e-05
3.0538e-08
1.66499e-05
3.05793e-08
3.03445e-08
1.66528e-05
1.80125e-05
-5.49115e-09
1.80113e-05
-2.38241e-10
1.80066e-05
7.63709e-09
1.80069e-05
-6.59849e-11
1.80104e-05
2.4106e-08
1.8009e-05
2.7999e-08
1.80037e-05
2.59798e-08
1.80005e-05
2.73523e-08
1.79944e-05
3.42941e-08
1.79892e-05
3.38006e-08
1.79867e-05
3.53024e-08
1.79853e-05
3.76084e-08
1.79831e-05
3.81054e-08
1.79811e-05
3.71766e-08
1.79799e-05
3.5743e-08
1.79792e-05
3.31946e-08
1.7979e-05
3.09917e-08
1.79796e-05
2.99171e-08
1.79807e-05
2.95155e-08
2.97164e-08
1.79813e-05
1.94511e-05
-3.87613e-09
1.94499e-05
9.69711e-10
1.94464e-05
1.10706e-08
1.94444e-05
1.98212e-09
1.94471e-05
2.13631e-08
1.9446e-05
2.91676e-08
1.94423e-05
2.96237e-08
1.94388e-05
3.0875e-08
1.9434e-05
3.91103e-08
1.94278e-05
3.99482e-08
1.94246e-05
3.85132e-08
1.94231e-05
3.90952e-08
1.94215e-05
3.97465e-08
1.94195e-05
3.91907e-08
1.9418e-05
3.7219e-08
1.94172e-05
3.40017e-08
1.94171e-05
3.11036e-08
1.94176e-05
2.9353e-08
1.94187e-05
2.84361e-08
2.71348e-08
1.94213e-05
2.10043e-05
-2.35298e-09
2.10033e-05
1.94928e-09
2.10002e-05
1.41529e-08
2.09981e-05
4.08985e-09
2.09986e-05
2.08373e-08
2.09981e-05
2.97481e-08
2.09947e-05
3.29586e-08
2.09925e-05
3.3114e-08
2.09884e-05
4.31872e-08
2.09825e-05
4.58682e-08
2.09779e-05
4.31169e-08
2.09761e-05
4.08629e-08
2.09747e-05
4.11339e-08
2.09732e-05
4.06957e-08
2.09714e-05
3.9035e-08
2.09703e-05
3.51014e-08
2.09701e-05
3.12896e-08
2.09709e-05
2.85359e-08
2.09724e-05
2.69603e-08
2.52168e-08
2.09743e-05
2.26815e-05
-9.50366e-10
2.26805e-05
2.96771e-09
2.26781e-05
1.6574e-08
2.26756e-05
6.59764e-09
2.26753e-05
2.11017e-08
2.26744e-05
3.07006e-08
2.26708e-05
3.64834e-08
2.26696e-05
3.43439e-08
2.2667e-05
4.57728e-08
2.2662e-05
5.08874e-08
2.26563e-05
4.88307e-08
2.26535e-05
4.36303e-08
2.26522e-05
4.24037e-08
2.26511e-05
4.18764e-08
2.26495e-05
4.06369e-08
2.26479e-05
3.66198e-08
2.26475e-05
3.17784e-08
2.26484e-05
2.75738e-08
2.26504e-05
2.49426e-08
2.28204e-08
2.26528e-05
2.44925e-05
4.62496e-10
2.44917e-05
3.76637e-09
2.44896e-05
1.87062e-08
2.44866e-05
9.57665e-09
2.44864e-05
2.12776e-08
2.4485e-05
3.21284e-08
2.44815e-05
3.99764e-08
2.44798e-05
3.60591e-08
2.44792e-05
4.63585e-08
2.44759e-05
5.42378e-08
2.44699e-05
5.48078e-08
2.44657e-05
4.78036e-08
2.44639e-05
4.42487e-08
2.4463e-05
4.27783e-08
2.44619e-05
4.1689e-08
2.44604e-05
3.81159e-08
2.44592e-05
3.29764e-08
2.44591e-05
2.76643e-08
2.44599e-05
2.41506e-08
2.11327e-08
2.44616e-05
2.64481e-05
1.88586e-09
2.64475e-05
4.41395e-09
2.64457e-05
2.0457e-08
2.64423e-05
1.30288e-08
2.6442e-05
2.15691e-08
2.64411e-05
3.30431e-08
2.64375e-05
4.35256e-08
2.64347e-05
3.88917e-08
2.64352e-05
4.58667e-08
2.64341e-05
5.53414e-08
2.64293e-05
5.96351e-08
2.6424e-05
5.31094e-08
2.64209e-05
4.72857e-08
2.64198e-05
4.38798e-08
2.64187e-05
4.27602e-08
2.64176e-05
3.92667e-08
2.64161e-05
3.44398e-08
2.64156e-05
2.82373e-08
2.64161e-05
2.35606e-08
1.89228e-08
2.64184e-05
2.85599e-05
3.26207e-09
2.85593e-05
5.10482e-09
2.85581e-05
2.15999e-08
2.85542e-05
1.68927e-08
2.85535e-05
2.23613e-08
2.85534e-05
3.31155e-08
2.85506e-05
4.63358e-08
2.85468e-05
4.26823e-08
2.85467e-05
4.59405e-08
2.85478e-05
5.42366e-08
2.8545e-05
6.24172e-08
2.854e-05
5.81832e-08
2.85354e-05
5.1798e-08
2.85334e-05
4.59415e-08
2.8532e-05
4.41015e-08
2.8531e-05
4.03261e-08
2.85298e-05
3.5577e-08
2.85293e-05
2.87311e-08
2.85306e-05
2.23343e-08
1.7329e-08
2.85322e-05
3.08405e-05
4.4308e-09
3.08395e-05
6.15151e-09
3.08391e-05
2.19287e-08
3.08351e-05
2.08992e-08
3.08337e-05
2.3826e-08
3.0834e-05
3.28251e-08
3.08329e-05
4.74268e-08
3.08287e-05
4.68551e-08
3.08274e-05
4.72287e-08
3.08294e-05
5.22534e-08
3.08291e-05
6.2711e-08
3.08256e-05
6.16911e-08
3.08205e-05
5.68948e-08
3.08174e-05
4.90665e-08
3.08157e-05
4.58097e-08
3.08141e-05
4.19207e-08
3.08115e-05
3.80947e-08
3.08089e-05
3.1389e-08
3.08074e-05
2.38287e-08
1.45008e-08
3.08102e-05
3.33033e-05
5.28236e-09
3.33018e-05
7.64632e-09
3.3302e-05
2.17008e-08
3.32986e-05
2.42979e-08
3.32963e-05
2.61001e-08
3.32965e-05
3.26033e-08
3.3297e-05
4.69896e-08
3.32939e-05
4.98776e-08
3.32916e-05
4.95896e-08
3.32929e-05
5.08925e-08
3.32949e-05
6.07689e-08
3.32937e-05
6.29027e-08
3.32896e-05
6.09886e-08
3.32853e-05
5.33427e-08
3.32818e-05
4.92993e-08
3.32799e-05
4.37916e-08
3.32794e-05
3.86253e-08
3.32794e-05
3.14389e-08
3.32793e-05
2.38898e-08
1.56075e-08
3.32782e-05
3.59627e-05
5.74797e-09
3.59608e-05
9.5456e-09
3.59613e-05
2.11799e-08
3.59589e-05
2.67109e-08
3.59563e-05
2.86765e-08
3.59559e-05
3.298e-08
3.59574e-05
4.54746e-08
3.59564e-05
5.09488e-08
3.5954e-05
5.19671e-08
3.59542e-05
5.06363e-08
3.5957e-05
5.79635e-08
3.59583e-05
6.16646e-08
3.59566e-05
6.27108e-08
3.59536e-05
5.63425e-08
3.595e-05
5.29025e-08
3.59464e-05
4.73376e-08
3.59416e-05
4.34541e-08
3.59373e-05
3.57743e-08
3.59357e-05
2.54686e-08
1.30368e-08
3.59382e-05
3.88343e-05
5.89223e-09
3.88324e-05
1.15029e-08
3.88327e-05
2.07897e-08
3.88315e-05
2.79418e-08
3.88292e-05
3.09753e-08
3.88283e-05
3.38882e-08
3.88301e-05
4.36579e-08
3.8831e-05
5.00966e-08
3.88299e-05
5.30232e-08
3.88297e-05
5.08643e-08
3.88323e-05
5.53553e-08
3.88353e-05
5.8675e-08
3.88363e-05
6.17317e-08
3.88349e-05
5.7679e-08
3.88336e-05
5.42075e-08
3.88324e-05
4.86139e-08
3.88318e-05
4.40378e-08
3.8831e-05
3.65018e-08
3.88286e-05
2.7951e-08
1.54555e-08
3.88261e-05
4.19351e-05
5.82559e-09
4.19335e-05
1.31384e-08
4.19335e-05
2.07027e-08
4.19333e-05
2.81959e-08
4.19318e-05
3.24461e-08
4.19308e-05
3.48773e-08
4.19324e-05
4.20935e-08
4.19345e-05
4.79875e-08
4.19355e-05
5.20492e-08
4.19362e-05
5.01362e-08
4.19385e-05
5.30524e-08
4.19423e-05
5.48638e-08
4.19461e-05
5.79866e-08
4.19485e-05
5.5297e-08
4.19494e-05
5.32869e-08
4.1949e-05
4.89561e-08
4.19477e-05
4.53522e-08
4.19447e-05
3.94797e-08
4.19388e-05
3.38592e-08
1.91097e-08
4.19352e-05
4.52833e-05
5.64981e-09
4.52823e-05
1.42002e-08
4.52822e-05
2.07812e-08
4.52826e-05
2.78216e-08
4.52822e-05
3.28165e-08
4.52816e-05
3.54676e-08
4.52831e-05
4.06323e-08
4.52853e-05
4.57204e-08
4.52881e-05
4.92636e-08
4.52904e-05
4.78389e-08
4.5295e-05
4.8428e-08
4.52997e-05
5.01884e-08
4.53052e-05
5.25329e-08
4.53081e-05
5.23929e-08
4.53105e-05
5.08836e-08
4.53129e-05
4.65162e-08
4.5317e-05
4.12441e-08
4.53236e-05
3.28763e-08
4.53379e-05
1.95742e-08
8.58057e-09
4.53484e-05
4.88988e-05
5.43595e-09
4.88985e-05
1.45372e-08
4.88985e-05
2.08043e-08
4.88994e-05
2.69135e-08
4.88998e-05
3.23796e-08
4.89002e-05
3.50942e-08
4.89019e-05
3.88757e-08
4.89046e-05
4.30732e-08
4.89067e-05
4.71623e-08
4.8909e-05
4.55594e-08
4.89149e-05
4.24666e-08
4.89255e-05
3.95976e-08
4.89403e-05
3.77144e-08
4.89577e-05
3.50105e-08
4.89767e-05
3.19069e-08
4.89957e-05
2.75139e-08
4.90135e-05
2.34459e-08
4.9025e-05
2.13691e-08
4.90233e-05
2.12608e-08
1.53532e-08
4.90165e-05
5.2803e-05
5.14784e-09
5.28033e-05
1.42659e-08
5.28038e-05
2.02534e-08
5.2805e-05
2.57062e-08
5.28064e-05
3.10497e-08
5.28072e-05
3.42353e-08
5.28094e-05
3.66901e-08
5.28141e-05
3.84024e-08
5.28193e-05
4.1955e-08
5.28201e-05
4.47314e-08
5.28177e-05
4.4849e-08
5.28132e-05
4.41126e-08
5.28081e-05
4.28439e-08
5.28022e-05
4.09226e-08
5.27967e-05
3.74092e-08
5.27923e-05
3.18912e-08
5.27915e-05
2.42252e-08
5.28017e-05
1.12119e-08
5.28181e-05
4.80844e-09
-4.22866e-09
5.28377e-05
5.70189e-05
4.76906e-09
5.70198e-05
1.33326e-08
5.7021e-05
1.90636e-08
5.70228e-05
2.39107e-08
5.70253e-05
2.85485e-08
5.70267e-05
3.28094e-08
5.70271e-05
3.63191e-08
5.70278e-05
3.77084e-08
5.7034e-05
3.57997e-08
5.70454e-05
3.3319e-08
5.70615e-05
2.87287e-08
5.70822e-05
2.34281e-08
5.71074e-05
1.76548e-08
5.71357e-05
1.2609e-08
5.71653e-05
7.81476e-09
5.71931e-05
4.07077e-09
5.72163e-05
9.84263e-10
5.72277e-05
-1.68922e-10
5.72315e-05
1.07374e-09
6.32072e-09
5.72209e-05
6.15714e-05
4.28669e-09
6.15731e-05
1.16576e-08
6.15749e-05
1.72049e-08
6.15775e-05
2.13436e-08
6.15806e-05
2.548e-08
6.1585e-05
2.83812e-08
6.15898e-05
3.15339e-08
6.15911e-05
3.64352e-08
6.15861e-05
4.07668e-08
6.15754e-05
4.40423e-08
6.15581e-05
4.59653e-08
6.1536e-05
4.55858e-08
6.15102e-05
4.34793e-08
6.14837e-05
3.90531e-08
6.14586e-05
3.294e-08
6.14383e-05
2.43783e-08
6.14255e-05
1.38104e-08
6.14226e-05
2.6655e-09
6.14304e-05
-6.68691e-09
-2.06154e-08
6.14573e-05
6.64876e-05
3.52149e-09
6.64898e-05
9.40607e-09
6.64929e-05
1.41665e-08
6.64964e-05
1.78305e-08
6.64996e-05
2.22752e-08
6.6502e-05
2.59985e-08
6.65049e-05
2.86172e-08
6.65113e-05
2.99636e-08
6.65215e-05
3.06348e-08
6.65354e-05
3.01615e-08
6.65525e-05
2.88478e-08
6.65717e-05
2.63286e-08
6.65921e-05
2.31347e-08
6.66118e-05
1.92995e-08
6.66294e-05
1.53246e-08
6.66426e-05
1.12017e-08
6.66482e-05
8.23816e-09
6.6644e-05
6.83847e-09
6.66349e-05
2.4297e-09
1.83712e-09
6.66125e-05
7.1796e-05
2.73274e-09
7.1799e-05
6.33815e-09
7.18028e-05
1.03811e-08
7.18084e-05
1.2209e-08
7.18144e-05
1.63279e-08
7.18213e-05
1.90952e-08
7.18246e-05
2.53252e-08
7.18242e-05
3.03527e-08
7.18157e-05
3.90762e-08
7.18003e-05
4.56089e-08
7.17745e-05
5.46338e-08
7.17411e-05
5.97526e-08
7.16989e-05
6.53203e-08
7.16527e-05
6.54461e-08
7.16043e-05
6.38054e-08
7.15601e-05
5.53372e-08
7.15296e-05
3.87437e-08
7.15149e-05
2.1532e-08
7.151e-05
7.38957e-09
-1.8956e-08
7.15308e-05
7.75287e-05
7.75323e-05
7.75368e-05
7.75432e-05
7.75505e-05
7.75603e-05
7.75717e-05
7.75861e-05
7.76011e-05
7.76168e-05
7.76297e-05
7.76392e-05
7.76421e-05
7.76386e-05
7.7626e-05
7.76047e-05
7.75615e-05
7.75134e-05
7.74733e-05
7.74496e-05
3.81221e-06
2.78391e-08
3.77762e-06
3.45894e-08
3.74114e-06
3.64822e-08
3.69843e-06
4.27142e-08
3.65014e-06
4.82855e-08
3.59969e-06
5.04549e-08
3.55028e-06
4.94064e-08
3.5033e-06
4.69806e-08
3.45822e-06
4.50793e-08
3.41368e-06
4.45356e-08
3.36851e-06
4.51734e-08
3.32233e-06
4.61822e-08
3.27526e-06
4.70674e-08
3.22733e-06
4.79324e-08
3.17849e-06
4.88383e-08
3.12882e-06
4.96672e-08
3.07836e-06
5.04596e-08
3.02699e-06
5.13731e-08
2.97467e-06
5.23214e-08
2.92138e-06
5.3285e-08
2.86706e-06
5.43293e-08
2.81184e-06
5.52115e-08
2.75603e-06
5.58172e-08
2.69965e-06
5.6381e-08
2.64273e-06
5.69206e-08
2.58565e-06
5.70767e-08
2.52872e-06
5.69297e-08
2.47187e-06
5.68489e-08
2.41515e-06
5.67231e-08
2.35893e-06
5.62163e-08
2.30356e-06
5.53743e-08
2.24895e-06
5.46087e-08
2.19488e-06
5.4064e-08
2.14128e-06
5.36037e-08
2.08805e-06
5.32329e-08
2.03485e-06
5.32e-08
1.98099e-06
5.38583e-08
1.92557e-06
5.54232e-08
1.86781e-06
5.77505e-08
1.80749e-06
6.03201e-08
1.74493e-06
6.25619e-08
1.68122e-06
6.37178e-08
1.61786e-06
6.3352e-08
1.55615e-06
6.17161e-08
1.49684e-06
5.93098e-08
1.43974e-06
5.70939e-08
1.38421e-06
5.55362e-08
1.32974e-06
5.44626e-08
1.27633e-06
5.3413e-08
1.225e-06
5.13287e-08
1.17732e-06
4.76792e-08
1.13447e-06
4.28536e-08
1.09678e-06
3.76918e-08
1.06373e-06
3.30498e-08
1.03461e-06
2.91186e-08
1.00922e-06
2.53944e-08
9.87975e-07
2.12404e-08
9.71431e-07
1.65435e-08
9.59456e-07
1.19752e-08
9.51218e-07
8.23851e-09
9.45605e-07
5.6127e-09
9.41732e-07
3.87331e-09
9.39443e-07
2.28874e-09
9.38862e-07
5.81374e-10
9.39551e-07
-6.89237e-10
9.40736e-07
-1.18539e-09
9.41808e-07
-1.07124e-09
9.42543e-07
-7.35739e-10
9.43094e-07
-5.51198e-10
9.43553e-07
-4.58448e-10
9.43562e-07
-9.19517e-12
9.42792e-07
7.69693e-10
9.41395e-07
1.39722e-09
9.39665e-07
1.72999e-09
9.37587e-07
2.07845e-09
9.3513e-07
2.45693e-09
9.32407e-07
2.72322e-09
9.296e-07
2.80629e-09
9.26924e-07
2.67583e-09
9.24531e-07
2.39307e-09
9.2246e-07
2.07137e-09
9.20751e-07
1.70866e-09
9.19453e-07
1.29869e-09
9.18467e-07
9.86131e-10
9.17592e-07
8.74164e-10
9.16712e-07
8.79948e-10
9.15793e-07
9.19562e-10
9.14809e-07
9.84072e-10
9.13811e-07
9.97952e-10
9.12961e-07
8.49855e-10
9.12361e-07
6.00135e-10
9.11943e-07
4.18228e-10
9.1158e-07
3.62781e-10
9.11236e-07
3.44007e-10
9.10956e-07
2.79981e-10
9.10776e-07
1.79952e-10
9.10687e-07
8.8532e-11
9.10666e-07
2.09895e-11
9.10701e-07
-3.41236e-11
9.1079e-07
-8.90164e-11
9.10932e-07
-1.42097e-10
9.11121e-07
-1.89624e-10
9.11354e-07
-2.32287e-10
9.11624e-07
-2.70841e-10
9.11927e-07
-3.02679e-10
9.12253e-07
-3.25617e-10
9.12592e-07
-3.39251e-10
9.12939e-07
-3.46577e-10
9.1329e-07
-3.51748e-10
9.13648e-07
-3.57266e-10
9.14009e-07
-3.61034e-10
9.14369e-07
-3.6063e-10
9.14721e-07
-3.51592e-10
9.15052e-07
-3.30859e-10
9.1535e-07
-2.98742e-10
9.15608e-07
-2.5801e-10
9.15822e-07
-2.13435e-10
9.15991e-07
-1.69481e-10
9.16122e-07
-1.3058e-10
9.1622e-07
-9.81905e-11
9.16294e-07
-7.38066e-11
9.1635e-07
-5.61097e-11
9.16395e-07
-4.46806e-11
9.16431e-07
-3.64925e-11
9.16463e-07
-3.20176e-11
9.16491e-07
-2.74504e-11
9.16516e-07
-2.51835e-11
9.16536e-07
-2.05639e-11
9.16555e-07
-1.87987e-11
9.16568e-07
-1.32615e-11
9.16581e-07
-1.27343e-11
9.16588e-07
-6.77507e-12
9.16597e-07
-8.68846e-12
9.16599e-07
-2.2586e-12
9.16606e-07
-7.13026e-12
9.16605e-07
5.44778e-13
9.16613e-07
-7.3878e-12
9.1661e-07
2.40244e-12
9.16619e-07
-8.48509e-12
9.16615e-07
3.95258e-12
9.16625e-07
-9.57793e-12
9.16619e-07
5.2803e-12
9.1663e-07
-1.02142e-11
9.16624e-07
5.90078e-12
9.16633e-07
-9.80107e-12
9.16628e-07
5.2936e-12
9.16636e-07
-7.78964e-12
9.16633e-07
2.91388e-12
9.16637e-07
-3.82656e-12
9.16638e-07
-1.46464e-12
9.16636e-07
1.90711e-12
9.16644e-07
-7.37988e-12
9.16635e-07
8.50251e-12
9.16649e-07
-1.33859e-11
9.16635e-07
1.41288e-11
9.16652e-07
-1.72849e-11
9.16635e-07
1.64909e-11
9.16652e-07
-1.69347e-11
9.16638e-07
1.38426e-11
9.1665e-07
-1.14648e-11
9.16643e-07
6.44087e-12
9.16646e-07
-2.44194e-12
9.16649e-07
-2.68765e-12
9.16643e-07
6.02027e-12
9.16651e-07
-8.75638e-12
9.16642e-07
9.16574e-12
9.1665e-07
-8.01465e-12
9.16645e-07
5.18266e-12
9.16646e-07
-1.21089e-12
9.16649e-07
-2.42514e-12
9.16643e-07
5.88261e-12
9.16649e-07
-6.674e-12
9.16643e-07
6.77488e-12
9.16646e-07
-3.27481e-12
9.16645e-07
8.14208e-13
9.16641e-07
4.32478e-12
9.16646e-07
-5.00255e-12
9.16638e-07
7.69326e-12
9.16642e-07
-3.50183e-12
9.16638e-07
3.81845e-12
9.16635e-07
2.8834e-12
9.16634e-07
7.98475e-13
9.16631e-07
3.15528e-12
9.16622e-07
9.18001e-12
9.1663e-07
-7.83089e-12
9.16602e-07
2.73894e-11
9.16622e-07
-1.99668e-11
9.1658e-07
4.24458e-11
9.16598e-07
-1.8391e-11
9.16551e-07
4.72666e-11
9.16547e-07
3.89043e-12
9.16502e-07
4.52561e-11
9.16448e-07
5.40707e-11
9.16391e-07
5.62548e-11
9.16267e-07
1.24479e-10
9.16087e-07
1.80211e-10
9.15824e-07
2.62263e-10
9.15295e-07
5.29877e-10
9.14058e-07
1.23677e-09
3.93316e-09
4.15454e-06
2.6366e-08
4.1722e-06
1.69271e-08
4.18328e-06
2.54021e-08
4.18445e-06
4.15393e-08
4.17892e-06
5.38249e-08
4.17241e-06
5.69592e-08
4.1672e-06
5.46189e-08
4.16376e-06
5.04237e-08
4.16129e-06
4.75441e-08
4.15873e-06
4.70923e-08
4.15537e-06
4.85391e-08
4.15082e-06
5.0726e-08
4.1452e-06
5.26968e-08
4.1387e-06
5.4425e-08
4.13146e-06
5.60793e-08
4.12348e-06
5.76537e-08
4.11468e-06
5.92528e-08
4.10495e-06
6.11084e-08
4.09421e-06
6.3057e-08
4.08255e-06
6.49453e-08
4.06992e-06
6.69616e-08
4.05624e-06
6.88884e-08
4.04159e-06
7.04644e-08
4.02605e-06
7.19207e-08
4.00958e-06
7.33976e-08
3.99219e-06
7.44694e-08
3.97401e-06
7.51031e-08
3.95508e-06
7.57778e-08
3.93541e-06
7.64007e-08
3.91509e-06
7.653e-08
3.89432e-06
7.6148e-08
3.87316e-06
7.57703e-08
3.85156e-06
7.56633e-08
3.82949e-06
7.5667e-08
3.80691e-06
7.58125e-08
3.7837e-06
7.64164e-08
3.75965e-06
7.79054e-08
3.73442e-06
8.06501e-08
3.70771e-06
8.44623e-08
3.67932e-06
8.87109e-08
3.64929e-06
9.25947e-08
3.6179e-06
9.51108e-08
3.58556e-06
9.56883e-08
3.55274e-06
9.45353e-08
3.51968e-06
9.23656e-08
3.48642e-06
9.03597e-08
3.45281e-06
8.91409e-08
3.4187e-06
8.85792e-08
3.38403e-06
8.80837e-08
3.34906e-06
8.6297e-08
3.31435e-06
8.23917e-08
3.2805e-06
7.66955e-08
3.24774e-06
7.04554e-08
3.21597e-06
6.48167e-08
3.18526e-06
5.98341e-08
3.15575e-06
5.49048e-08
3.12785e-06
4.91371e-08
3.10208e-06
4.23132e-08
3.07861e-06
3.5448e-08
3.05725e-06
2.95993e-08
3.03757e-06
2.52898e-08
3.0192e-06
2.22416e-08
3.00208e-06
1.9408e-08
2.98609e-06
1.65705e-08
2.971e-06
1.44004e-08
2.95655e-06
1.32701e-08
2.94229e-06
1.31892e-08
2.92812e-06
1.34279e-08
2.91445e-06
1.31268e-08
2.90128e-06
1.2703e-08
2.88834e-06
1.29309e-08
2.87555e-06
1.35689e-08
2.86296e-06
1.39781e-08
2.85054e-06
1.41582e-08
2.8382e-06
1.44163e-08
2.82593e-06
1.47291e-08
2.81372e-06
1.49292e-08
2.80173e-06
1.47952e-08
2.7902e-06
1.42097e-08
2.77921e-06
1.33851e-08
2.76875e-06
1.2529e-08
2.75889e-06
1.15702e-08
2.74966e-06
1.05278e-08
2.74097e-06
9.67282e-09
2.73273e-06
9.11413e-09
2.72492e-06
8.68957e-09
2.71752e-06
8.32136e-09
2.71048e-06
8.02618e-09
2.70382e-06
7.65427e-09
2.69765e-06
7.0211e-09
2.69202e-06
6.23133e-09
2.68688e-06
5.55371e-09
2.68217e-06
5.07425e-09
2.67786e-06
4.6563e-09
2.67396e-06
4.17815e-09
2.67049e-06
3.65306e-09
2.66743e-06
3.14775e-09
2.66476e-06
2.68863e-09
2.66247e-06
2.26081e-09
2.66053e-06
1.84825e-09
2.65894e-06
1.4512e-09
2.65768e-06
1.0697e-09
2.65674e-06
6.9968e-10
2.65613e-06
3.44997e-10
2.65581e-06
1.96707e-11
2.65575e-06
-2.66366e-10
2.65592e-06
-5.13683e-10
2.65631e-06
-7.37499e-10
2.65692e-06
-9.59272e-10
2.65775e-06
-1.19247e-09
2.65882e-06
-1.42925e-09
2.66011e-06
-1.64812e-09
2.66157e-06
-1.8149e-09
2.66314e-06
-1.89906e-09
2.66473e-06
-1.88583e-09
2.66625e-06
-1.77929e-09
2.66764e-06
-1.60047e-09
2.66885e-06
-1.37901e-09
2.66986e-06
-1.14702e-09
2.67069e-06
-9.29348e-10
2.67136e-06
-7.4315e-10
2.6719e-06
-5.93641e-10
2.67234e-06
-4.80249e-10
2.67269e-06
-3.94371e-10
2.67299e-06
-3.30588e-10
2.67324e-06
-2.77528e-10
2.67345e-06
-2.34342e-10
2.67362e-06
-1.91859e-10
2.67376e-06
-1.56771e-10
2.67387e-06
-1.19684e-10
2.67395e-06
-9.38647e-11
2.67401e-06
-6.46642e-11
2.67405e-06
-5.13787e-11
2.67408e-06
-3.02107e-11
2.6741e-06
-2.89254e-11
2.67411e-06
-1.22465e-11
2.67413e-06
-2.0196e-11
2.67413e-06
-3.73483e-12
2.67414e-06
-1.82919e-11
2.67414e-06
7.98221e-13
2.67415e-06
-1.86066e-11
2.67415e-06
4.00006e-12
2.67416e-06
-1.90348e-11
2.67416e-06
5.87789e-12
2.67417e-06
-1.81147e-11
2.67417e-06
5.90214e-12
2.67418e-06
-1.49903e-11
2.67418e-06
3.34005e-12
2.67418e-06
-9.09514e-12
2.67418e-06
-2.23541e-12
2.67419e-06
-6.38459e-13
2.67419e-06
-1.02183e-11
2.67419e-06
9.15318e-12
2.67419e-06
-1.86371e-11
2.67419e-06
1.77725e-11
2.6742e-06
-2.4382e-11
2.67419e-06
2.1964e-11
2.6742e-06
-2.43475e-11
2.67419e-06
1.91733e-11
2.6742e-06
-1.72595e-11
2.6742e-06
9.77085e-12
2.6742e-06
-5.41563e-12
2.6742e-06
-1.67308e-12
2.6742e-06
4.92375e-12
2.6742e-06
-7.80983e-12
2.6742e-06
6.5368e-12
2.6742e-06
-3.17619e-12
2.6742e-06
-2.64669e-12
2.67419e-06
9.80995e-12
2.67421e-06
-1.53585e-11
2.67419e-06
2.00489e-11
2.6742e-06
-1.8855e-11
2.67419e-06
1.67488e-11
2.6742e-06
-7.856e-12
2.6742e-06
2.86741e-12
2.67419e-06
6.29078e-12
2.67419e-06
-4.38756e-12
2.6742e-06
6.5865e-12
2.67419e-06
5.14875e-12
2.6742e-06
-4.8535e-12
2.67418e-06
1.72529e-11
2.67419e-06
-5.86034e-12
2.67418e-06
1.18934e-11
2.67417e-06
1.3598e-11
2.67417e-06
-5.6112e-12
2.67416e-06
3.96719e-11
2.67416e-06
-1.8279e-11
2.67414e-06
6.52041e-11
2.67414e-06
-2.13175e-11
2.6741e-06
9.05285e-11
2.67409e-06
7.25803e-12
2.67404e-06
9.33909e-11
2.67398e-06
1.15863e-10
2.67395e-06
8.93837e-11
2.67379e-06
2.85039e-10
2.67366e-06
3.06369e-10
2.67342e-06
5.05897e-10
2.67287e-06
1.08016e-09
2.672e-06
2.10354e-09
6.66337e-09
4.48886e-06
1.01087e-08
4.50523e-06
5.6459e-10
4.51531e-06
1.53156e-08
4.51211e-06
4.47435e-08
4.5093e-06
5.6635e-08
4.50843e-06
5.78273e-08
4.50942e-06
5.36296e-08
4.51092e-06
4.89262e-08
4.51197e-06
4.64915e-08
4.51278e-06
4.62792e-08
4.5137e-06
4.76183e-08
4.51464e-06
4.97852e-08
4.51539e-06
5.19506e-08
4.51592e-06
5.38944e-08
4.51628e-06
5.57239e-08
4.51644e-06
5.74857e-08
4.51642e-06
5.9278e-08
4.51619e-06
6.13416e-08
4.51573e-06
6.351e-08
4.51513e-06
6.55494e-08
4.51436e-06
6.77272e-08
4.51333e-06
6.99184e-08
4.51202e-06
7.17732e-08
4.5105e-06
7.34452e-08
4.50872e-06
7.51814e-08