/*--------------------------------*- C++ -*----------------------------------*\
| =========                 |                                                 |
| \\      /  F ield         | OpenFOAM: The Open Source CFD Toolbox           |
|  \\    /   O peration     | Version:  v2012                                 |
|   \\  /    A nd           | Website:  www.openfoam.com                      |
|    \\/     M anipulation  |                                                 |
\*---------------------------------------------------------------------------*/
FoamFile
{
    version     2.0;
    format      ascii;
    class       volVectorField;
    location    "0.3";
    object      U;
}
// * * * * * * * * * * * * * * * * * * * * * * * * * * * * * * * * * * * * * //

dimensions      [0 1 -1 0 0 0 0];


internalField   nonuniform List<vector> 
8800
(
(0.965041 -0.00107787 0)
(1.03396 0.000813245 0)
(0.968408 -0.00079306 0)
(1.03055 0.00125703 0)
(0.972117 -0.000365504 0)
(1.02845 0.000295239 0)
(0.974597 -0.00112275 0)
(1.02532 -0.000289994 0)
(0.977834 -0.00117618 0)
(1.02165 0.000178128 0)
(0.980629 0.000135321 0)
(1.02001 0.0012767 0)
(0.984256 0.000139271 0)
(1.01788 0.000560726 0)
(0.986337 5.7785e-06 0)
(1.01618 0.000650941 0)
(0.989383 0.000400478 0)
(1.01613 0.00054649 0)
(0.993383 0.000394955 0)
(1.01734 0.000872779 0)
(0.986951 -0.00100919 0)
(1.01084 0.000633742 0)
(0.989934 -0.000623851 0)
(1.00831 0.00102945 0)
(0.992976 -0.000184406 0)
(1.0071 0.000104868 0)
(0.994333 -0.000754926 0)
(1.00503 -0.000637072 0)
(0.995905 -0.00072871 0)
(1.00277 -0.000184396 0)
(0.99728 0.000413144 0)
(1.00275 0.000976808 0)
(0.99943 0.000350574 0)
(1.00236 0.000410748 0)
(1.0002 0.000242288 0)
(1.00241 0.000340417 0)
(1.00176 0.000745374 0)
(1.00382 0.000714235 0)
(1.00443 0.00106769 0)
(1.00671 0.000862335 0)
(0.997499 -0.000932259 0)
(1.00114 0.000506975 0)
(0.997662 -0.000508906 0)
(1.00043 0.000960307 0)
(0.998742 -0.000130563 0)
(1.00043 6.58233e-05 0)
(0.998764 -0.000814879 0)
(0.999655 -0.000528683 0)
(0.998367 -0.000883461 0)
(0.998591 3.10506e-05 0)
(0.998501 3.64924e-05 0)
(0.999582 0.00138069 0)
(0.999924 -0.000121082 0)
(1.00019 0.0010291 0)
(1.00044 -0.000338487 0)
(1.001 0.000864107 0)
(1.00173 1.88399e-05 0)
(1.00281 0.00199695 0)
(1.00384 0.00200153 0)
(1.00563 0.00497578 0)
(0.999761 -0.000926752 0)
(0.999403 0.000476521 0)
(0.998925 -0.000447984 0)
(0.999251 0.000881676 0)
(0.999426 -7.52017e-05 0)
(0.999514 -2.86977e-05 0)
(0.999237 -0.000620215 0)
(0.998991 -0.000692959 0)
(0.998354 -0.000608355 0)
(0.997925 -0.000287553 0)
(0.998202 0.000468737 0)
(0.998932 0.000779569 0)
(0.999569 0.000432346 0)
(0.999797 0.000490805 0)
(1.00025 0.000196749 0)
(1.00078 0.000445812 0)
(1.00168 0.000515973 0)
(1.00291 0.000335893 0)
(1.00433 0.000272517 0)
(1.00531 0.00110977 0)
(1.00004 -0.000735926 0)
(0.999255 0.000214548 0)
(0.999047 -0.000173503 0)
(0.999177 0.000586284 0)
(0.99945 0.000180043 0)
(0.999485 -0.000240395 0)
(0.999259 -0.000333346 0)
(0.998999 -0.000852238 0)
(0.998318 -0.00032928 0)
(0.997891 -0.000500774 0)
(0.998093 0.000797713 0)
(0.998822 0.000206712 0)
(0.999455 0.00096181 0)
(0.999753 -0.000173907 0)
(1.00021 0.000736891 0)
(1.00084 -4.08187e-05 0)
(1.00151 0.000795994 0)
(1.00252 -0.000757056 0)
(1.00372 -0.00045569 0)
(1.00583 -0.00165824 0)
(1.00007 -0.000841421 0)
(0.999267 0.000311748 0)
(0.999091 -0.000256404 0)
(0.999172 0.000758704 0)
(0.999424 4.7576e-05 0)
(0.999461 -1.01993e-05 0)
(0.999264 -0.000632165 0)
(0.999004 -0.000408718 0)
(0.998384 -0.000809526 0)
(0.99795 0.000156263 0)
(0.998143 -4.04307e-05 0)
(0.998803 0.00103831 0)
(0.999413 0.000156166 0)
(0.999737 0.000599273 0)
(1.00025 0.000192464 0)
(1.00082 0.0006174 0)
(1.00155 5.7645e-05 0)
(1.00271 0.000711821 0)
(1.00418 0.000630457 0)
(1.00674 0.00254815 0)
(1.00006 -0.000564056 0)
(0.999304 -4.4677e-05 0)
(0.999108 0.000139718 0)
(0.999201 0.000292925 0)
(0.999412 0.000469814 0)
(0.999453 -0.000479627 0)
(0.99926 -9.36429e-05 0)
(0.999015 -0.000813522 0)
(0.998422 -0.000310703 0)
(0.99799 -0.000197525 0)
(0.998219 0.000270801 0)
(0.998828 0.000640297 0)
(0.999401 0.000495285 0)
(0.999771 0.000292096 0)
(1.00024 0.000485031 0)
(1.00083 0.000317897 0)
(1.00158 0.000607152 0)
(1.00268 0.00046069 0)
(1.00425 0.000589648 0)
(1.00693 0.0011658 0)
(1.00006 -0.000681398 0)
(0.999347 5.95922e-05 0)
(0.999149 -5.71516e-06 0)
(0.999224 0.000537471 0)
(0.999376 0.000175118 0)
(0.999441 -4.89178e-05 0)
(0.999259 -0.000559689 0)
(0.999026 -0.000230244 0)
(0.998496 -0.000859438 0)
(0.998068 0.000375256 0)
(0.998289 -0.000121847 0)
(0.998859 0.000938994 0)
(0.999373 0.000267429 0)
(0.999762 0.000520545 0)
(1.00028 0.000276397 0)
(1.00088 0.000661958 0)
(1.00161 0.000431378 0)
(1.00275 0.000786131 0)
(1.00442 0.000918604 0)
(1.00727 0.00189571 0)
(1.00006 -0.00044461 0)
(0.999388 -0.000260713 0)
(0.999185 0.000287035 0)
(0.999248 0.000250437 0)
(0.999397 0.000428436 0)
(0.99941 -0.000200489 0)
(0.999285 -0.000348313 0)
(0.999012 -0.000335262 0)
(0.998548 -0.000545599 0)
(0.998118 7.97433e-05 0)
(0.99835 0.000200287 0)
(0.998918 0.000594921 0)
(0.999365 0.000482463 0)
(0.999803 0.000479298 0)
(1.00031 0.000482387 0)
(1.00089 0.000578899 0)
(1.00165 0.000613727 0)
(1.00284 0.000877756 0)
(1.00464 0.00118479 0)
(1.00762 0.00189606 0)
(1.00005 -0.000486351 0)
(0.999457 -0.000217931 0)
(0.999235 0.000221832 0)
(0.999289 0.00039676 0)
(0.999364 0.000298727 0)
(0.999402 -8.96889e-05 0)
(0.999289 -0.000338235 0)
(0.999052 -0.000407931 0)
(0.998608 -0.000238802 0)
(0.998229 -0.00021549 0)
(0.998418 0.00057475 0)
(0.998947 0.000341952 0)
(0.999392 0.000668936 0)
(0.999798 0.00044995 0)
(1.00034 0.000592443 0)
(1.00096 0.000592055 0)
(1.00174 0.00082761 0)
(1.00296 0.000929251 0)
(1.0048 0.00135148 0)
(1.00789 0.0017928 0)
(1.00006 -0.000364808 0)
(0.999499 -0.000354245 0)
(0.999291 0.000226561 0)
(0.999307 0.000422379 0)
(0.999397 0.000192383 0)
(0.99939 0.000184792 0)
(0.999296 -0.000526622 0)
(0.999078 -9.97779e-05 0)
(0.998625 -0.000398999 0)
(0.998309 5.52742e-05 0)
(0.998494 0.000301331 0)
(0.99899 0.000598058 0)
(0.999432 0.000505859 0)
(0.999838 0.000625112 0)
(1.00039 0.000547528 0)
(1.001 0.0007674 0)
(1.00179 0.000792074 0)
(1.00306 0.0010774 0)
(1.00499 0.00135972 0)
(1.00819 0.00198934 0)
(1.00005 -0.000296982 0)
(0.999569 -0.000428894 0)
(0.999374 0.00026479 0)
(0.999339 0.000432202 0)
(0.999397 0.000261971 0)
(0.999363 5.01589e-05 0)
(0.999315 -0.000287436 0)
(0.999124 -0.000298227 0)
(0.998703 -0.000189455 0)
(0.998413 8.13615e-05 0)
(0.998585 0.000302694 0)
(0.999041 0.000614021 0)
(0.999452 0.000596144 0)
(0.999855 0.000611002 0)
(1.00044 0.000616465 0)
(1.00108 0.000774157 0)
(1.0019 0.000934902 0)
(1.00321 0.00117909 0)
(1.00521 0.00149745 0)
(1.00847 0.00202814 0)
(1.00005 -0.000305562 0)
(0.999623 -0.000328579 0)
(0.999446 7.13236e-05 0)
(0.999373 0.000588845 0)
(0.999418 0.000154715 0)
(0.999383 0.000205076 0)
(0.999309 -0.000161599 0)
(0.999161 -0.000268451 0)
(0.998759 -6.7739e-05 0)
(0.998466 0.000127758 0)
(0.99867 0.000293912 0)
(0.999117 0.000604246 0)
(0.999491 0.000645053 0)
(0.999902 0.000682169 0)
(1.0005 0.000686598 0)
(1.00116 0.000831112 0)
(1.00198 0.00102091 0)
(1.00333 0.00124189 0)
(1.0054 0.00153477 0)
(1.00873 0.00198243 0)
(1.00005 -0.000177869 0)
(0.999675 -0.000410686 0)
(0.999546 7.30593e-05 0)
(0.999411 0.000509889 0)
(0.999411 0.000275305 0)
(0.999378 6.59236e-05 0)
(0.999306 -2.64859e-05 0)
(0.999211 -0.000285489 0)
(0.998848 -1.85771e-05 0)
(0.998558 0.000215374 0)
(0.998761 0.000432231 0)
(0.99919 0.000567713 0)
(0.999534 0.000720605 0)
(0.999925 0.000748993 0)
(1.00054 0.000748413 0)
(1.00125 0.000851495 0)
(1.00211 0.00108492 0)
(1.00349 0.00131154 0)
(1.0056 0.0015881 0)
(1.00898 0.00194937 0)
(1.00005 -0.00022798 0)
(0.99972 -0.00024878 0)
(0.999628 -9.40275e-05 0)
(0.999469 0.000520924 0)
(0.999425 0.000319187 0)
(0.99941 0.000115542 0)
(0.999319 7.61921e-05 0)
(0.999237 -9.75371e-05 0)
(0.998932 -4.53807e-05 0)
(0.998637 0.000335248 0)
(0.998822 0.000461318 0)
(0.999261 0.000576844 0)
(0.999608 0.000713974 0)
(0.999974 0.000847038 0)
(1.0006 0.000829425 0)
(1.00134 0.000917762 0)
(1.00223 0.00110191 0)
(1.00361 0.0013437 0)
(1.00576 0.00156841 0)
(1.0092 0.0019061 0)
(1.00005 -0.000144987 0)
(0.999748 -0.000230849 0)
(0.999714 -0.000113619 0)
(0.999528 0.000427325 0)
(0.999409 0.000424273 0)
(0.999401 9.09677e-05 0)
(0.999331 7.74903e-05 0)
(0.999254 3.62736e-05 0)
(0.999015 -3.65882e-05 0)
(0.998747 0.000356939 0)
(0.998892 0.000569482 0)
(0.999327 0.000639454 0)
(0.999681 0.000742059 0)
(1.00002 0.00089301 0)
(1.00063 0.000914067 0)
(1.00142 0.000953746 0)
(1.00236 0.00112121 0)
(1.00376 0.00136149 0)
(1.00595 0.00158182 0)
(1.00942 0.00187202 0)
(1.00005 -0.000153561 0)
(0.999776 -0.000139691 0)
(0.999781 -0.000139517 0)
(0.999608 0.000273642 0)
(0.999426 0.000496185 0)
(0.999409 0.00013642 0)
(0.999371 0.000166541 0)
(0.999274 0.000165378 0)
(0.999077 0.000101425 0)
(0.998858 0.000366324 0)
(0.998963 0.000648121 0)
(0.999375 0.000706425 0)
(0.999753 0.000765777 0)
(1.00009 0.000918767 0)
(1.00068 0.00099563 0)
(1.00149 0.00102842 0)
(1.00247 0.00115791 0)
(1.00389 0.00135562 0)
(1.0061 0.0015486 0)
(1.00961 0.00179776 0)
(1.00005 -0.000125336 0)
(0.999792 -7.99436e-05 0)
(0.999828 -0.000115709 0)
(0.999688 0.000183318 0)
(0.999433 0.000507481 0)
(0.999392 0.000230362 0)
(0.999393 0.000172387 0)
(0.999295 0.00024876 0)
(0.999128 0.000231081 0)
(0.99896 0.000392904 0)
(0.999051 0.000681498 0)
(0.999421 0.000793462 0)
(0.999812 0.000823922 0)
(1.00016 0.000948114 0)
(1.00072 0.0010321 0)
(1.00154 0.0010781 0)
(1.00257 0.00117224 0)
(1.00402 0.00135142 0)
(1.00626 0.00153577 0)
(1.00981 0.00175567 0)
(1.00005 -9.78966e-05 0)
(0.999808 -5.63111e-05 0)
(0.999863 -5.55888e-05 0)
(0.999762 6.22299e-05 0)
(0.999473 0.000457112 0)
(0.999382 0.000324196 0)
(0.999424 0.000229449 0)
(0.999338 0.000347979 0)
(0.999169 0.000372692 0)
(0.999047 0.000462318 0)
(0.999144 0.000707417 0)
(0.999473 0.000860314 0)
(0.99986 0.00090484 0)
(1.00022 0.000983877 0)
(1.00078 0.00106502 0)
(1.0016 0.00111602 0)
(1.00266 0.00120296 0)
(1.00415 0.00135689 0)
(1.00639 0.00150732 0)
(1.00997 0.00167398 0)
(1.00005 -9.31472e-05 0)
(0.999824 -1.31498e-05 0)
(0.999881 1.41206e-06 0)
(0.999827 2.36906e-05 0)
(0.999523 0.000403748 0)
(0.999378 0.000398178 0)
(0.999443 0.000307803 0)
(0.999378 0.000417976 0)
(0.999208 0.000499636 0)
(0.999116 0.000560548 0)
(0.999236 0.000728084 0)
(0.999538 0.000911364 0)
(0.999904 0.000978177 0)
(1.00027 0.00104618 0)
(1.00082 0.0010993 0)
(1.00165 0.00113824 0)
(1.00274 0.00120052 0)
(1.00425 0.00132595 0)
(1.00651 0.0014552 0)
(1.01011 0.00160061 0)
(1.00005 -5.58435e-05 0)
(0.99984 -1.7177e-05 0)
(0.999889 7.41049e-05 0)
(0.999876 -1.76583e-05 0)
(0.999585 0.000358531 0)
(0.999388 0.000406647 0)
(0.999466 0.000396493 0)
(0.999432 0.000474232 0)
(0.999253 0.000640159 0)
(0.999168 0.000669287 0)
(0.999318 0.00078073 0)
(0.999612 0.000932549 0)
(0.999955 0.00104821 0)
(1.00031 0.00111317 0)
(1.00085 0.00115402 0)
(1.00168 0.00115826 0)
(1.00281 0.0011948 0)
(1.00435 0.00128811 0)
(1.00662 0.00141334 0)
(1.01023 0.00153088 0)
(1.00005 -5.30826e-05 0)
(0.99986 1.21342e-05 0)
(0.999893 0.000111455 0)
(0.999917 1.77354e-05 0)
(0.999649 0.000312914 0)
(0.999414 0.000432902 0)
(0.999491 0.000462189 0)
(0.999489 0.000537075 0)
(0.999308 0.000745571 0)
(0.999204 0.000809145 0)
(0.999379 0.000849245 0)
(0.999691 0.000957016 0)
(1.00002 0.00108834 0)
(1.00036 0.00118169 0)
(1.00087 0.00121605 0)
(1.0017 0.00119678 0)
(1.00285 0.00119239 0)
(1.00443 0.00124683 0)
(1.00672 0.00133832 0)
(1.01033 0.00143562 0)
(1.00004 -2.67268e-05 0)
(0.999877 1.24563e-05 0)
(0.999895 0.000152313 0)
(0.999941 3.89734e-05 0)
(0.999712 0.000292885 0)
(0.999449 0.000450431 0)
(0.999521 0.000510245 0)
(0.999558 0.000576086 0)
(0.999383 0.000833558 0)
(0.999238 0.000951864 0)
(0.999413 0.000952499 0)
(0.999757 0.00099452 0)
(1.0001 0.00110711 0)
(1.00041 0.0012275 0)
(1.00088 0.0012834 0)
(1.00168 0.00125101 0)
(1.00286 0.00120548 0)
(1.00448 0.00120634 0)
(1.0068 0.00125758 0)
(1.01042 0.00133017 0)
(1.00004 -1.85928e-05 0)
(0.999896 2.84793e-05 0)
(0.999895 0.000185307 0)
(0.999961 6.62825e-05 0)
(0.999776 0.000304334 0)
(0.999491 0.000469775 0)
(0.999548 0.000573289 0)
(0.999631 0.000599119 0)
(0.999482 0.000889168 0)
(0.999278 0.00107498 0)
(0.999423 0.00109628 0)
(0.999797 0.00106031 0)
(1.00018 0.00113215 0)
(1.00049 0.0012452 0)
(1.0009 0.00133941 0)
(1.00165 0.00131373 0)
(1.00283 0.00123962 0)
(1.00448 0.00118333 0)
(1.00684 0.00118413 0)
(1.01048 0.00121271 0)
(1.00003 -1.33608e-06 0)
(0.999914 3.823e-05 0)
(0.999891 0.000214114 0)
(0.999973 0.000102629 0)
(0.999835 0.000299257 0)
(0.999541 0.000489163 0)
(0.99957 0.000642581 0)
(0.999699 0.000621071 0)
(0.999606 0.000900416 0)
(0.999351 0.00115726 0)
(0.99942 0.00125411 0)
(0.999796 0.00116865 0)
(1.00023 0.00117644 0)
(1.00057 0.00125189 0)
(1.00094 0.00136612 0)
(1.00161 0.00137002 0)
(1.00275 0.00128981 0)
(1.00443 0.00118265 0)
(1.00683 0.0011217 0)
(1.01048 0.00109135 0)
(1.00002 1.08628e-05 0)
(0.999931 4.57392e-05 0)
(0.99989 0.00023672 0)
(0.999975 0.000148065 0)
(0.999893 0.00029208 0)
(0.999607 0.000510839 0)
(0.999588 0.000712768 0)
(0.999745 0.000670781 0)
(0.999741 0.000887249 0)
(0.999466 0.00118746 0)
(0.999433 0.00137847 0)
(0.999758 0.00132074 0)
(1.00025 0.00125761 0)
(1.00064 0.00127974 0)
(1.001 0.001374 0)
(1.00159 0.00140801 0)
(1.00265 0.00134401 0)
(1.00431 0.00120471 0)
(1.00674 0.00108087 0)
(1.01041 0.000981312 0)
(1.00002 2.67618e-05 0)
(0.99995 4.96444e-05 0)
(0.999891 0.000257225 0)
(0.999968 0.00019475 0)
(0.999944 0.000303785 0)
(0.999685 0.000504877 0)
(0.999613 0.000771986 0)
(0.999768 0.000745486 0)
(0.999864 0.000885729 0)
(0.999621 0.00115954 0)
(0.999493 0.00145787 0)
(0.999713 0.00146326 0)
(1.00021 0.00139646 0)
(1.00066 0.00133559 0)
(1.00105 0.00139684 0)
(1.00158 0.00142614 0)
(1.00254 0.00139257 0)
(1.00413 0.00123596 0)
(1.00655 0.00105908 0)
(1.01023 0.000872569 0)
(1.00001 3.91827e-05 0)
(0.999968 5.90948e-05 0)
(0.9999 0.000261273 0)
(0.999958 0.000251673 0)
(0.999981 0.000319133 0)
(0.999775 0.000496864 0)
(0.999661 0.000796953 0)
(0.999774 0.000836216 0)
(0.999949 0.000908244 0)
(0.999797 0.00111674 0)
(0.999613 0.00146517 0)
(0.999699 0.00156713 0)
(1.00013 0.00155208 0)
(1.00063 0.00144312 0)
(1.00108 0.00145671 0)
(1.00157 0.00145414 0)
(1.00242 0.00143685 0)
(1.00389 0.00127795 0)
(1.00624 0.00106852 0)
(1.00989 0.000794058 0)
(1.00001 4.99033e-05 0)
(0.999983 7.29907e-05 0)
(0.999917 0.000259045 0)
(0.999949 0.000301047 0)
(1.00001 0.00035132 0)
(0.999864 0.000490562 0)
(0.999734 0.000790024 0)
(0.999784 0.000904002 0)
(0.999995 0.000964955 0)
(0.999958 0.00108659 0)
(0.999782 0.00142063 0)
(0.999753 0.00160567 0)
(1.00007 0.00167918 0)
(1.00055 0.00158113 0)
(1.00104 0.00156145 0)
(1.00154 0.00152003 0)
(1.0023 0.00149804 0)
(1.00363 0.001334 0)
(1.00583 0.00109637 0)
(1.00933 0.000734312 0)
(1 5.66118e-05 0)
(0.999995 9.21996e-05 0)
(0.999941 0.000252022 0)
(0.99995 0.000337028 0)
(1.00002 0.000392284 0)
(0.999943 0.000494198 0)
(0.999826 0.000763096 0)
(0.999821 0.000932826 0)
(1.00001 0.00102856 0)
(1.00008 0.00108082 0)
(0.999969 0.00136496 0)
(0.999877 0.00157372 0)
(1.00007 0.00174823 0)
(1.00048 0.00169292 0)
(1.00097 0.00168906 0)
(1.00147 0.00161866 0)
(1.00214 0.00160491 0)
(1.00329 0.0014383 0)
(1.00528 0.00118412 0)
(1.00854 0.000714639 0)
(0.999999 5.85827e-05 0)
(1 0.000115689 0)
(0.999967 0.000244464 0)
(0.99996 0.000359144 0)
(1.00002 0.00042814 0)
(1 0.000511401 0)
(0.999925 0.000730848 0)
(0.999888 0.000923589 0)
(1.00003 0.00106104 0)
(1.00016 0.00109854 0)
(1.00014 0.00130846 0)
(1.00005 0.0015113 0)
(1.00014 0.00173469 0)
(1.00045 0.00175348 0)
(1.00091 0.0017786 0)
(1.00139 0.00170773 0)
(1.002 0.00169451 0)
(1.00294 0.00153523 0)
(1.00457 0.00127926 0)
(1.00731 0.000746195 0)
(0.999998 5.87924e-05 0)
(1.00001 0.000135346 0)
(0.999992 0.000243868 0)
(0.99998 0.000363114 0)
(1.00003 0.000456661 0)
(1.00005 0.000529327 0)
(1.00001 0.000707817 0)
(0.999975 0.000885799 0)
(1.00007 0.0010552 0)
(1.00022 0.00110184 0)
(1.00028 0.00125433 0)
(1.00024 0.0014334 0)
(1.00026 0.00166261 0)
(1.00048 0.00175919 0)
(1.00086 0.00180052 0)
(1.0013 0.00173826 0)
(1.00182 0.00168485 0)
(1.00255 0.00151829 0)
(1.00379 0.00125346 0)
(1.00592 0.000709073 0)
(0.999998 5.68448e-05 0)
(1.00001 0.000150798 0)
(1.00001 0.000244764 0)
(1.00001 0.000361236 0)
(1.00005 0.000465943 0)
(1.00009 0.000546758 0)
(1.00009 0.000686687 0)
(1.00007 0.000841611 0)
(1.00012 0.00101708 0)
(1.00027 0.00106758 0)
(1.00039 0.00118077 0)
(1.00042 0.00130143 0)
(1.00044 0.00154703 0)
(1.00056 0.00174243 0)
(1.00081 0.00194439 0)
(1.00115 0.00204714 0)
(1.00157 0.002129 0)
(1.0021 0.00203575 0)
(1.00292 0.00173226 0)
(1.00423 0.000943636 0)
(0.999998 5.48449e-05 0)
(1.00001 0.000158223 0)
(1.00003 0.000246044 0)
(1.00003 0.000353803 0)
(1.00007 0.000461383 0)
(1.00012 0.000552698 0)
(1.00014 0.000661888 0)
(1.00015 0.000800514 0)
(1.00018 0.000949935 0)
(1.00029 0.00104309 0)
(1.00044 0.00107807 0)
(1.00059 0.00107809 0)
(1.00075 0.00106558 0)
(1.00096 0.00100923 0)
(1.00125 0.000900779 0)
(1.00155 0.000747825 0)
(1.00174 0.000586974 0)
(1.0017 0.000458348 0)
(1.00137 0.000372904 0)
(1.00068 0.000339143 0)
(0.999999 5.30467e-05 0)
(1.00001 0.000156192 0)
(1.00004 0.000246911 0)
(1.00006 0.000335883 0)
(1.0001 0.000452691 0)
(1.00014 0.000534973 0)
(1.00019 0.000646629 0)
(1.00022 0.000732698 0)
(1.00026 0.000859992 0)
(1.00031 0.000965387 0)
(1.00033 0.00109788 0)
(1.0003 0.0012353 0)
(1.00023 0.00142532 0)
(1.00019 0.00158617 0)
(1.00025 0.00173049 0)
(1.00047 0.00174781 0)
(1.00091 0.00168076 0)
(1.0016 0.0014272 0)
(1.0027 0.00102592 0)
(1.00439 0.000335709 0)
(0.999999 4.8341e-05 0)
(1.00002 0.00015285 0)
(1.00005 0.000231666 0)
(1.00009 0.000324824 0)
(1.00012 0.000415913 0)
(1.00017 0.00052033 0)
(1.00021 0.000611262 0)
(1.00025 0.00071193 0)
(1.00032 0.000766332 0)
(1.00048 0.000776808 0)
(1.0007 0.000688847 0)
(1.00098 0.000569852 0)
(1.00123 0.000385134 0)
(1.00144 0.000223076 0)
(1.00153 2.2271e-05 0)
(1.00145 -0.000125655 0)
(1.00102 -0.000268542 0)
(1.0001 -0.000303954 0)
(0.998397 -0.000255954 0)
(0.995518 -2.75576e-05 0)
(1 4.59179e-05 0)
(1.00002 0.000134447 0)
(1.00006 0.00021773 0)
(1.0001 0.00029182 0)
(1.00016 0.000384759 0)
(1.00021 0.000471065 0)
(1.00027 0.000565296 0)
(1.00028 0.000661415 0)
(1.00022 0.00078353 0)
(1.00009 0.000892589 0)
(0.999916 0.000983293 0)
(0.999692 0.00101696 0)
(0.999496 0.0010167 0)
(0.999345 0.000950629 0)
(0.999389 0.000843747 0)
(0.999694 0.000665789 0)
(1.00042 0.000443617 0)
(1.00169 0.000181217 0)
(1.00375 -8.48131e-05 0)
(1.00707 -0.000333956 0)
(0.999998 3.8792e-05 0)
(1.00003 0.00011593 0)
(1.00007 0.000186367 0)
(1.00013 0.000254213 0)
(1.00018 0.000337192 0)
(1.00025 0.000423441 0)
(1.0003 0.000509362 0)
(1.0004 0.000578881 0)
(1.00052 0.000638924 0)
(1.00068 0.000691017 0)
(1.00085 0.000728574 0)
(1.00105 0.000748473 0)
(1.00116 0.000746128 0)
(1.00119 0.00071924 0)
(1.00102 0.000666023 0)
(1.00059 0.000566721 0)
(0.999782 0.000432965 0)
(0.998463 0.000246514 0)
(0.996377 2.3713e-05 0)
(0.993109 -0.000255917 0)
(1 3.23416e-05 0)
(1.00003 9.27549e-05 0)
(1.00009 0.000153715 0)
(1.00015 0.0002102 0)
(1.00023 0.000286285 0)
(1.00029 0.00037558 0)
(1.00035 0.000495927 0)
(1.00033 0.000624971 0)
(1.00026 0.000768487 0)
(1.00008 0.000889015 0)
(0.999849 0.000988 0)
(0.999533 0.00102559 0)
(0.999226 0.00100983 0)
(0.998952 0.00091963 0)
(0.998832 0.000768232 0)
(0.998968 0.000551328 0)
(0.999524 0.000291181 0)
(1.00067 -1.2214e-05 0)
(1.00266 -0.000324344 0)
(1.006 -0.000609079 0)
(0.999997 1.72595e-05 0)
(1.00004 3.4563e-05 0)
(1.0001 7.73755e-05 0)
(1.00018 8.43116e-05 0)
(1.00027 0.00014296 0)
(1.0004 0.000161045 0)
(1.00053 0.000264888 0)
(1.0007 0.000336524 0)
(1.00084 0.000554254 0)
(1.00101 0.000755795 0)
(1.0011 0.00114125 0)
(1.00114 0.00148788 0)
(1.00102 0.00199238 0)
(1.00076 0.00237389 0)
(1.00022 0.00280206 0)
(0.999385 0.00296032 0)
(0.998103 0.0029733 0)
(0.996281 0.00250126 0)
(0.99376 0.00161495 0)
(0.99022 -3.83422e-05 0)
(1.0024 0.00203625 0)
(0.990005 0.00272125 0)
(0.975645 0.00311239 0)
(0.961307 0.0033731 0)
(0.947454 0.0035158 0)
(0.934125 0.00350647 0)
(0.92129 0.00335633 0)
(0.90892 0.00314841 0)
(0.896949 0.0029758 0)
(0.885252 0.0028738 0)
(0.873702 0.00283497 0)
(0.862169 0.00282842 0)
(0.850557 0.00282039 0)
(0.838721 0.0028124 0)
(0.826517 0.00281161 0)
(0.813905 0.0028082 0)
(0.800966 0.0028082 0)
(0.787794 0.00282431 0)
(0.77443 0.00283964 0)
(0.760831 0.00285658 0)
(0.746856 0.00288403 0)
(0.732578 0.00289683 0)
(0.718172 0.00288328 0)
(0.703659 0.00286905 0)
(0.688942 0.00285507 0)
(0.674154 0.00280332 0)
(0.659494 0.0027287 0)
(0.644903 0.00266291 0)
(0.630298 0.00260115 0)
(0.615732 0.00251761 0)
(0.601386 0.00241613 0)
(0.587261 0.00232909 0)
(0.573257 0.00225984 0)
(0.559324 0.00220193 0)
(0.545486 0.0021551 0)
(0.531755 0.00213713 0)
(0.517998 0.00217322 0)
(0.503969 0.00226825 0)
(0.489405 0.00240253 0)
(0.474157 0.0025141 0)
(0.458265 0.00255496 0)
(0.441878 0.00247208 0)
(0.425442 0.00226581 0)
(0.409262 0.00203569 0)
(0.393638 0.00185339 0)
(0.378645 0.00179785 0)
(0.364073 0.00182449 0)
(0.349865 0.00179492 0)
(0.335875 0.00164312 0)
(0.322297 0.00137341 0)
(0.309513 0.0010769 0)
(0.29783 0.000831175 0)
(0.287428 0.000621086 0)
(0.278315 0.000425723 0)
(0.270332 0.000241685 0)
(0.26335 5.65235e-05 0)
(0.257393 -0.000132085 0)
(0.252583 -0.00030249 0)
(0.248947 -0.000417277 0)
(0.246352 -0.000480443 0)
(0.244592 -0.000512809 0)
(0.243389 -0.000533442 0)
(0.242605 -0.00055808 0)
(0.242244 -0.0005792 0)
(0.242273 -0.000572753 0)
(0.242513 -0.000527336 0)
(0.242798 -0.000482025 0)
(0.243047 -0.000438953 0)
(0.243231 -0.000392047 0)
(0.243354 -0.000347212 0)
(0.243411 -0.000302585 0)
(0.243321 -0.000243325 0)
(0.243041 -0.000203284 0)
(0.242636 -0.000175465 0)
(0.242141 -0.000146413 0)
(0.241553 -0.000119717 0)
(0.240881 -0.000100624 0)
(0.240165 -8.84938e-05 0)
(0.239458 -8.34439e-05 0)
(0.238802 -8.65218e-05 0)
(0.238224 -9.47803e-05 0)
(0.237739 -9.99823e-05 0)
(0.237353 -9.8715e-05 0)
(0.237058 -9.20014e-05 0)
(0.236819 -7.96546e-05 0)
(0.236594 -6.41532e-05 0)
(0.236363 -5.04407e-05 0)
(0.236116 -4.21384e-05 0)
(0.235861 -3.98371e-05 0)
(0.235623 -3.91293e-05 0)
(0.235436 -3.74472e-05 0)
(0.235304 -3.29766e-05 0)
(0.235204 -2.70247e-05 0)
(0.235113 -2.18377e-05 0)
(0.235034 -1.80747e-05 0)
(0.234975 -1.49741e-05 0)
(0.23494 -1.1872e-05 0)
(0.234926 -8.7781e-06 0)
(0.234928 -6.44012e-06 0)
(0.234945 -4.43613e-06 0)
(0.234975 -2.50579e-06 0)
(0.235018 -5.38919e-07 0)
(0.235073 1.45049e-06 0)
(0.235138 3.31316e-06 0)
(0.235213 4.92667e-06 0)
(0.235294 6.25861e-06 0)
(0.23538 7.50758e-06 0)
(0.235469 8.972e-06 0)
(0.235559 1.06076e-05 0)
(0.235651 1.19969e-05 0)
(0.235744 1.27136e-05 0)
(0.235838 1.24607e-05 0)
(0.23593 1.11624e-05 0)
(0.236018 8.91115e-06 0)
(0.2361 5.96563e-06 0)
(0.236172 2.72446e-06 0)
(0.236232 -3.92848e-07 0)
(0.236281 -3.00424e-06 0)
(0.23632 -4.90016e-06 0)
(0.236349 -6.25463e-06 0)
(0.236371 -7.07587e-06 0)
(0.236387 -7.45045e-06 0)
(0.2364 -7.48579e-06 0)
(0.236411 -7.2383e-06 0)
(0.23642 -6.76026e-06 0)
(0.236427 -6.05263e-06 0)
(0.236434 -5.21237e-06 0)
(0.236439 -4.28876e-06 0)
(0.236445 -3.41929e-06 0)
(0.236448 -2.61916e-06 0)
(0.236453 -1.99492e-06 0)
(0.236454 -1.47399e-06 0)
(0.236457 -1.1373e-06 0)
(0.236457 -8.44612e-07 0)
(0.23646 -6.92328e-07 0)
(0.236459 -5.14067e-07 0)
(0.236463 -4.46908e-07 0)
(0.236459 -2.83416e-07 0)
(0.236465 -2.90758e-07 0)
(0.23646 -1.24576e-07 0)
(0.236467 -2.03876e-07 0)
(0.23646 1.2188e-08 0)
(0.236469 -1.6116e-07 0)
(0.23646 7.66096e-08 0)
(0.236472 -1.30533e-07 0)
(0.23646 8.54591e-08 0)
(0.236474 -1.03868e-07 0)
(0.236459 5.87922e-08 0)
(0.236476 -5.61495e-08 0)
(0.236459 -5.37081e-09 0)
(0.236477 2.247e-08 0)
(0.23646 -7.3472e-08 0)
(0.236477 9.90043e-08 0)
(0.236461 -1.45664e-07 0)
(0.236477 1.66331e-07 0)
(0.236463 -1.97199e-07 0)
(0.236475 2.01039e-07 0)
(0.236465 -2.06292e-07 0)
(0.236474 1.87029e-07 0)
(0.236467 -1.67276e-07 0)
(0.236473 1.23234e-07 0)
(0.236468 -7.77375e-08 0)
(0.236473 2.36677e-08 0)
(0.236468 1.17407e-08 0)
(0.236473 -4.25687e-08 0)
(0.236468 6.19587e-08 0)
(0.236474 -7.16814e-08 0)
(0.236466 7.73995e-08 0)
(0.236475 -7.0993e-08 0)
(0.236465 6.60869e-08 0)
(0.236476 -5.01104e-08 0)
(0.236464 4.85379e-08 0)
(0.236477 -3.28705e-08 0)
(0.236462 3.85008e-08 0)
(0.236479 -1.49853e-08 0)
(0.23646 1.68431e-08 0)
(0.23648 -9.64975e-09 0)
(0.236457 4.52825e-08 0)
(0.236482 -5.71025e-08 0)
(0.236454 1.13342e-07 0)
(0.236484 -8.72021e-08 0)
(0.23645 1.36685e-07 0)
(0.236486 -6.9099e-08 0)
(0.236444 1.42353e-07 0)
(0.236488 -9.33609e-08 0)
(0.236436 2.60777e-07 0)
(0.236491 -2.25441e-07 0)
(0.236424 4.4996e-07 0)
(0.236495 -2.63598e-07 0)
(0.236407 4.97919e-07 0)
(0.236495 9.30651e-09 0)
(0.236385 4.55022e-07 0)
(0.236485 4.24298e-07 0)
(0.236347 7.42555e-07 0)
(0.236462 9.1134e-07 0)
(0.236258 2.03428e-06 0)
(0.236414 2.73938e-06 0)
(0.235998 4.25115e-06 0)
(0.236279 1.56099e-05 0)
(0.234913 4.02771e-05 0)
(1.00851 0.00168764 0)
(1.00745 0.0027099 0)
(1.0044 0.0038891 0)
(1.00138 0.00505443 0)
(0.998788 0.00582261 0)
(0.99665 0.00607641 0)
(0.994991 0.00587884 0)
(0.993788 0.00547544 0)
(0.992958 0.00512567 0)
(0.992343 0.00494635 0)
(0.9918 0.00492283 0)
(0.991209 0.00498091 0)
(0.990488 0.0050437 0)
(0.989531 0.00510037 0)
(0.988218 0.00515664 0)
(0.986524 0.00520191 0)
(0.984511 0.00524197 0)
(0.982257 0.00529715 0)
(0.979798 0.00535834 0)
(0.977097 0.00541695 0)
(0.974073 0.0054849 0)
(0.970767 0.00554475 0)
(0.967281 0.00558117 0)
(0.963619 0.00561416 0)
(0.959712 0.00564896 0)
(0.955618 0.0056517 0)
(0.951427 0.00562197 0)
(0.947097 0.0055975 0)
(0.942556 0.0055723 0)
(0.937804 0.00551296 0)
(0.932942 0.00541576 0)
(0.927974 0.00531697 0)
(0.922866 0.00523878 0)
(0.917593 0.00516897 0)
(0.912189 0.00510378 0)
(0.906686 0.00505492 0)
(0.901057 0.00505514 0)
(0.895208 0.00513662 0)
(0.889017 0.00528943 0)
(0.882433 0.00547955 0)
(0.875437 0.00566694 0)
(0.868079 0.00579904 0)
(0.860477 0.00583233 0)
(0.852699 0.00575867 0)
(0.84482 0.00560306 0)
(0.836874 0.00541404 0)
(0.828813 0.00523591 0)
(0.820674 0.00510745 0)
(0.812416 0.00501333 0)
(0.804104 0.0048766 0)
(0.795826 0.00462838 0)
(0.787655 0.00426303 0)
(0.779685 0.00385367 0)
(0.77194 0.00346459 0)
(0.764489 0.00312415 0)
(0.757357 0.00281493 0)
(0.750575 0.00248237 0)
(0.744228 0.00210434 0)
(0.738345 0.00171543 0)
(0.732943 0.00138007 0)
(0.728015 0.00113412 0)
(0.723461 0.000966635 0)
(0.719238 0.000822949 0)
(0.715294 0.000675474 0)
(0.711548 0.000541239 0)
(0.70799 0.00045316 0)
(0.704552 0.000420773 0)
(0.701152 0.000408379 0)
(0.697844 0.000376024 0)
(0.694639 0.000339705 0)
(0.691492 0.000329888 0)
(0.688422 0.000357011 0)
(0.685423 0.000378392 0)
(0.682446 0.000382837 0)
(0.679479 0.000387449 0)
(0.676545 0.000395097 0)
(0.673628 0.000397309 0)
(0.670733 0.000386464 0)
(0.667926 0.000361066 0)
(0.66524 0.000330491 0)
(0.662674 0.000299717 0)
(0.660247 0.000264926 0)
(0.657971 0.000226659 0)
(0.655825 0.000193479 0)
(0.653794 0.000171155 0)
(0.651876 0.00015496 0)
(0.650062 0.000143137 0)
(0.648337 0.000137457 0)
(0.646705 0.000129692 0)
(0.645179 0.000112694 0)
(0.64377 8.93536e-05 0)
(0.642479 7.02503e-05 0)
(0.6413 5.91305e-05 0)
(0.640225 5.09715e-05 0)
(0.639248 4.09271e-05 0)
(0.638368 2.93022e-05 0)
(0.637588 1.88141e-05 0)
(0.636904 1.06223e-05 0)
(0.636313 3.26082e-06 0)
(0.635809 -3.76538e-06 0)
(0.635388 -1.0304e-05 0)
(0.635048 -1.62654e-05 0)
(0.634787 -2.17615e-05 0)
(0.634603 -2.67163e-05 0)
(0.634493 -3.08786e-05 0)
(0.634449 -3.375e-05 0)
(0.634464 -3.57183e-05 0)
(0.634532 -3.74479e-05 0)
(0.634651 -3.94052e-05 0)
(0.634824 -4.12622e-05 0)
(0.635051 -4.2287e-05 0)
(0.635334 -4.19073e-05 0)
(0.635666 -3.96875e-05 0)
(0.636033 -3.54906e-05 0)
(0.636415 -2.96145e-05 0)
(0.63679 -2.27147e-05 0)
(0.637141 -1.56273e-05 0)
(0.637453 -9.01865e-06 0)
(0.637719 -3.39247e-06 0)
(0.637939 6.8245e-07 0)
(0.638116 3.31628e-06 0)
(0.638259 4.9366e-06 0)
(0.638374 5.73335e-06 0)
(0.638467 6.00292e-06 0)
(0.638545 5.79524e-06 0)
(0.638609 5.32109e-06 0)
(0.638665 4.55467e-06 0)
(0.638709 3.79621e-06 0)
(0.638747 2.92972e-06 0)
(0.638774 2.31742e-06 0)
(0.638799 1.63888e-06 0)
(0.638811 1.34396e-06 0)
(0.638828 8.63465e-07 0)
(0.63883 8.44758e-07 0)
(0.638843 4.34434e-07 0)
(0.638838 6.11294e-07 0)
(0.638852 1.46594e-07 0)
(0.638841 4.87575e-07 0)
(0.638859 -8.38172e-08 0)
(0.638841 4.0614e-07 0)
(0.638865 -2.49916e-07 0)
(0.63884 3.23046e-07 0)
(0.638872 -3.3806e-07 0)
(0.638838 2.64426e-07 0)
(0.638879 -3.58891e-07 0)
(0.638835 2.01722e-07 0)
(0.638885 -3.02871e-07 0)
(0.638832 1.06109e-07 0)
(0.63889 -1.55663e-07 0)
(0.638831 -5.83203e-08 0)
(0.638892 5.71479e-08 0)
(0.638832 -2.59744e-07 0)
(0.638892 2.81732e-07 0)
(0.638836 -4.59531e-07 0)
(0.638888 4.69955e-07 0)
(0.638843 -5.8369e-07 0)
(0.638881 5.43921e-07 0)
(0.638851 -5.63371e-07 0)
(0.638874 4.51081e-07 0)
(0.638858 -3.74406e-07 0)
(0.638869 1.92413e-07 0)
(0.638861 -4.90672e-08 0)
(0.638868 -1.34037e-07 0)
(0.638861 2.36962e-07 0)
(0.638872 -3.21951e-07 0)
(0.638856 3.21462e-07 0)
(0.638878 -2.62131e-07 0)
(0.638848 1.32816e-07 0)
(0.638886 2.32003e-08 0)
(0.638841 -1.70479e-07 0)
(0.638892 2.98005e-07 0)
(0.638835 -3.31579e-07 0)
(0.638896 3.25084e-07 0)
(0.638832 -1.82183e-07 0)
(0.638898 5.05634e-08 0)
(0.638829 1.54052e-07 0)
(0.638902 -1.83117e-07 0)
(0.638823 2.45522e-07 0)
(0.638909 -6.21697e-08 0)
(0.638812 1.17154e-08 0)
(0.638918 2.12966e-07 0)
(0.638801 -1.2219e-07 0)
(0.638926 2.10071e-07 0)
(0.638791 1.74904e-07 0)
(0.638933 -1.61498e-07 0)
(0.638775 6.6746e-07 0)
(0.638948 -4.19957e-07 0)
(0.638747 9.7989e-07 0)
(0.638968 -3.28019e-07 0)
(0.638715 1.15013e-06 0)
(0.63898 1.09503e-07 0)
(0.638684 1.21115e-06 0)
(0.638979 1.37913e-06 0)
(0.638634 1.19939e-06 0)
(0.638981 3.55806e-06 0)
(0.638517 3.63413e-06 0)