/*--------------------------------*- C++ -*----------------------------------*\
| =========                 |                                                 |
| \\      /  F ield         | OpenFOAM: The Open Source CFD Toolbox           |
|  \\    /   O peration     | Version:  v2012                                 |
|   \\  /    A nd           | Website:  www.openfoam.com                      |
|    \\/     M anipulation  |                                                 |
\*---------------------------------------------------------------------------*/
FoamFile
{
    version     2.0;
    format      ascii;
    class       volScalarField;
    location    "1";
    object      p;
}
// * * * * * * * * * * * * * * * * * * * * * * * * * * * * * * * * * * * * * //

dimensions      [0 2 -2 0 0 0 0];


internalField   nonuniform List<scalar> 
8800
(
4.82222e-10
0.000698894
0.000690191
0.000649298
0.000420142
0.000283327
3.55364e-05
-0.00014957
-0.0003728
-0.000577827
-0.000780151
-0.000982659
-0.00122819
-0.00148713
-0.00183777
-0.00223931
-0.00276338
-0.00338348
-0.00429934
-0.00604264
3.77043e-06
0.00069644
0.000691094
0.000647774
0.000422666
0.000281576
3.77574e-05
-0.000150819
-0.000370321
-0.0005785
-0.000782259
-0.000991456
-0.00122145
-0.00149613
-0.0018276
-0.00225225
-0.00275504
-0.00346132
-0.00441956
-0.00645255
1.06217e-05
0.000690873
0.000693174
0.000644275
0.000428313
0.000277089
4.10921e-05
-0.000153273
-0.000371881
-0.000579402
-0.000786986
-0.000990912
-0.0012201
-0.0014929
-0.0018305
-0.00227094
-0.00282755
-0.00352733
-0.00438563
-0.00620073
1.78953e-05
0.000684959
0.000693764
0.000643725
0.000431683
0.000278724
3.73341e-05
-0.000144584
-0.000387724
-0.000572421
-0.000803448
-0.000986472
-0.00122253
-0.00148319
-0.0018309
-0.00226212
-0.0029829
-0.00390096
-0.00516623
-0.00625617
2.97704e-05
0.000672536
0.000698412
0.000636955
0.000444437
0.00026619
5.07652e-05
-0.000158221
-0.000373483
-0.000589803
-0.000793657
-0.000999053
-0.00122228
-0.00149682
-0.00182798
-0.00226865
-0.00282504
-0.00354439
-0.00454373
-0.00669491
4.25256e-05
0.000659687
0.000700146
0.000635038
0.000452067
0.000264416
5.23241e-05
-0.00015945
-0.000380008
-0.000596301
-0.000796241
-0.00100594
-0.00122365
-0.00150157
-0.0018128
-0.00225103
-0.00281085
-0.00371591
-0.00505668
-0.00763541
5.93621e-05
0.0006414
0.000703825
0.000631748
0.000461176
0.000265
5.22395e-05
-0.000160127
-0.000386838
-0.000601536
-0.000806385
-0.00100773
-0.0012357
-0.00149383
-0.0018226
-0.00224117
-0.00283282
-0.00369338
-0.0051272
-0.00781917
8.11261e-05
0.000615566
0.000708313
0.000627057
0.000465472
0.000268701
5.97745e-05
-0.000163716
-0.000394422
-0.000613154
-0.000808262
-0.0010207
-0.00123654
-0.00149886
-0.0018173
-0.00224637
-0.00284326
-0.00376228
-0.00531542
-0.00819996
0.000105005
0.000600122
0.000696367
0.000635894
0.000460815
0.000269021
7.14396e-05
-0.000175328
-0.000403801
-0.000611109
-0.000819387
-0.00102697
-0.00124763
-0.00150029
-0.00182452
-0.00225946
-0.00288514
-0.00385859
-0.00551341
-0.00854156
0.000136356
0.000570104
0.000692869
0.000624291
0.000468143
0.00028924
7.08029e-05
-0.000183098
-0.000412333
-0.000627358
-0.000831006
-0.00103364
-0.00125098
-0.001506
-0.00183596
-0.00228442
-0.00294067
-0.00396926
-0.00570978
-0.00883771
0.000169179
0.000550445
0.000677451
0.000613887
0.000479266
0.000298637
5.32042e-05
-0.000178735
-0.00041186
-0.000640887
-0.000844295
-0.00104053
-0.00125648
-0.00151592
-0.00185409
-0.00232084
-0.00300877
-0.0040902
-0.00590167
-0.0091066
0.000208448
0.000531712
0.000651403
0.000604543
0.000484009
0.000301961
6.10337e-05
-0.000179111
-0.000422367
-0.000654344
-0.000856345
-0.00104927
-0.00126551
-0.00153059
-0.00187979
-0.00236688
-0.00308725
-0.00421665
-0.00608865
-0.00935689
0.000251905
0.000517183
0.000614828
0.00059333
0.000473174
0.000308824
9.0405e-05
-0.00018484
-0.000443043
-0.000666909
-0.000865183
-0.00105895
-0.00127746
-0.00154947
-0.00191171
-0.00242036
-0.00317302
-0.00434579
-0.0062701
-0.00959277
0.000298794
0.000507805
0.000581541
0.000569682
0.00046257
0.000313039
9.96883e-05
-0.000183118
-0.000452668
-0.00067856
-0.000875189
-0.00107037
-0.00129246
-0.00157292
-0.00194952
-0.00248062
-0.00326427
-0.00447622
-0.00644425
-0.00981034
0.000341967
0.000509646
0.00055498
0.000529102
0.000444321
0.000306405
0.000105178
-0.000167765
-0.000450793
-0.000690117
-0.000889591
-0.00108518
-0.00131124
-0.00160103
-0.0019929
-0.00254638
-0.00335938
-0.00460663
-0.00661156
-0.010014
0.00038477
0.000516048
0.000538921
0.000488937
0.000404657
0.000285724
0.000102339
-0.000149089
-0.000435127
-0.000692387
-0.00090377
-0.00110362
-0.00133438
-0.00163395
-0.00204144
-0.00261636
-0.00345668
-0.00473521
-0.0067726
-0.0102068
0.000428549
0.000524081
0.000524049
0.00045988
0.000365684
0.000247194
7.63221e-05
-0.000146204
-0.000412314
-0.000676619
-0.0009067
-0.00112043
-0.00136147
-0.00167198
-0.00209463
-0.00268962
-0.00355459
-0.00486062
-0.00692591
-0.0103866
0.000470294
0.00053421
0.00050942
0.000434608
0.000328428
0.00020571
4.18577e-05
-0.000162069
-0.000399468
-0.000653318
-0.000896212
-0.00113107
-0.0013887
-0.0017136
-0.00215168
-0.00276506
-0.00365177
-0.00498163
-0.00707109
-0.0105548
0.000508106
0.000545669
0.000497514
0.000407921
0.00029154
0.000164683
7.31894e-06
-0.000181488
-0.000398882
-0.000637515
-0.000883464
-0.00113463
-0.0014121
-0.00175472
-0.00220995
-0.00284087
-0.00374664
-0.0050968
-0.00720638
-0.0107091
0.000540903
0.000557178
0.0004889
0.00038094
0.000254542
0.000124603
-2.67787e-05
-0.00020249
-0.000404637
-0.000630882
-0.000874282
-0.00113546
-0.00143055
-0.00179233
-0.00226582
-0.00291422
-0.00383713
-0.00520446
-0.00733065
-0.0108492
0.000569372
0.000567445
0.000480418
0.000355106
0.000218
8.55784e-05
-6.06814e-05
-0.000224802
-0.000413888
-0.000629562
-0.000869457
-0.00113666
-0.0014457
-0.00182518
-0.00231671
-0.00298214
-0.00392075
-0.00530276
-0.00744227
-0.0109729
0.000593158
0.000575546
0.0004713
0.000330819
0.000183179
4.76053e-05
-9.42976e-05
-0.000248231
-0.000425636
-0.000631732
-0.000867749
-0.00113836
-0.00145805
-0.00185259
-0.00236069
-0.00304189
-0.00399478
-0.00538938
-0.00754105
-0.011084
0.000610792
0.000580032
0.00046223
0.000308422
0.000150195
1.10513e-05
-0.000127296
-0.000272488
-0.000439293
-0.000636113
-0.000867426
-0.00113944
-0.00146651
-0.00187289
-0.00239519
-0.00309041
-0.00405576
-0.00546107
-0.00762266
-0.0111748
0.000621906
0.000580574
0.000451806
0.000286372
0.000118934
-2.36056e-05
-0.000159146
-0.00029672
-0.00045388
-0.000641524
-0.000866802
-0.00113772
-0.00146901
-0.00188381
-0.00241707
-0.00312395
-0.00409989
-0.00551389
-0.00768297
-0.0112424
0.000626082
0.000576986
0.000438289
0.000263721
8.92461e-05
-5.59483e-05
-0.000189125
-0.000319945
-0.000468309
-0.000646888
-0.000864696
-0.00113139
-0.00146245
-0.00188135
-0.00242216
-0.00313799
-0.00412269
-0.00554462
-0.00771995
-0.0112853
0.000621582
0.000567021
0.00042187
0.000240707
6.10942e-05
-8.60853e-05
-0.000216944
-0.000341496
-0.000481068
-0.000650608
-0.000859892
-0.0011194
-0.0014445
-0.00186028
-0.00240188
-0.00312384
-0.00411824
-0.00555081
-0.00773635
-0.0113115
0.000607711
0.000549773
0.000401577
0.000216772
3.37458e-05
-0.000114901
-0.000243203
-0.000361081
-0.000490823
-0.000649504
-0.000849289
-0.00110063
-0.00141625
-0.00181816
-0.002342
-0.00304586
-0.00402665
-0.0054551
-0.00764717
-0.0112345
0.000582686
0.000524612
0.000376572
0.000191612
7.27846e-06
-0.000142569
-0.000269217
-0.000380769
-0.000498018
-0.000640034
-0.000823604
-0.00106519
-0.00138237
-0.00179639
-0.00233667
-0.0030529
-0.00403466
-0.00545062
-0.00762321
-0.0111993
0.000543185
0.000489155
0.00034677
0.000165377
-1.75891e-05
-0.000167736
-0.000294531
-0.000403476
-0.000512501
-0.00063472
-0.000781374
-0.00096929
-0.00122148
-0.00156969
-0.00205592
-0.00274203
-0.00372348
-0.00516207
-0.00736495
-0.010965
0.000487722
0.000438976
0.000307212
0.000135824
-4.0043e-05
-0.000184665
-0.000305803
-0.00041036
-0.000519912
-0.000652458
-0.00082044
-0.0010351
-0.00131122
-0.00166974
-0.00214221
-0.00278192
-0.00368897
-0.0050504
-0.00719559
-0.0107588
0.000421447
0.000379786
0.000251855
8.38003e-05
-8.99843e-05
-0.000230417
-0.000336471
-0.000404916
-0.000453448
-0.000500142
-0.000562897
-0.0006619
-0.000823808
-0.00108412
-0.0014901
-0.0021083
-0.00303906
-0.00444812
-0.00666697
-0.0103589
0.000319395
0.000313966
0.000228688
7.85319e-05
-0.000100807
-0.000264677
-0.000417927
-0.000552314
-0.000680957
-0.000806342
-0.000934895
-0.00107046
-0.0012278
-0.00142732
-0.00170297
-0.00210502
-0.00273045
-0.00375764
-0.00552645
-0.00873943
0.000214987
0.000152977
5.91749e-05
-4.10006e-05
-0.000131134
-0.000189226
-0.0002259
-0.000238868
-0.00023483
-0.000219442
-0.00020217
-0.000202585
-0.000252491
-0.000394909
-0.000683638
-0.00119254
-0.00204101
-0.00343586
-0.00574136
-0.00968564
0.000176052
0.000137223
2.11813e-05
-0.000124925
-0.000296653
-0.000497789
-0.000729307
-0.000976026
-0.00120823
-0.00138176
-0.00143752
-0.00136209
-0.00126264
-0.0012525
-0.00134312
-0.00141752
-0.00124123
-0.000473876
0.00135756
0.00502451
-0.000206955
-0.000248852
-0.00018632
-6.98247e-05
5.67776e-05
0.00016056
0.000194405
0.000187431
0.000195133
0.000247117
0.000330813
0.00040203
0.000407477
0.000299372
1.80119e-05
-0.000509257
-0.0014267
-0.00296692
-0.00548636
-0.00958599
-0.000122446
-0.000135576
-0.000263835
-0.000446211
-0.000656019
-0.000853664
-0.000999782
-0.0010327
-0.000957983
-0.000847616
-0.000753459
-0.000679366
-0.00059057
-0.000441238
-0.000157965
0.00035136
0.00125147
0.00277339
0.00528386
0.00945061
-0.000666582
-0.000651929
-0.000463186
-0.000181337
0.000128213
0.000417969
0.000618071
0.000701411
0.000715924
0.00074444
0.000831757
0.000959437
0.00106644
0.00107606
0.000900936
0.000431706
-0.000487886
-0.00206806
-0.00464956
-0.00887378
-0.0005852
-0.000603714
-0.000696068
-0.00079732
-0.000853391
-0.000833155
-0.000772738
-0.000689218
-0.000582512
-0.000433043
-0.000214741
9.24315e-05
0.000505202
0.00104276
0.00173998
0.00265665
0.00389995
0.00565594
0.00826259
0.0123819
-0.00106459
-0.00100809
-0.000789098
-0.00049168
-0.000175961
0.000152204
0.000474477
0.000780527
0.00102489
0.00117477
0.00130143
0.00151376
0.00184197
0.00221001
0.00247213
0.00247269
0.00204684
0.000975048
-0.00112149
-0.00495329
-0.00111399
-0.00111145
-0.00107828
-0.00105363
-0.00107218
-0.00110618
-0.00111669
-0.00103253
-0.000808556
-0.000410343
0.000179435
0.000969146
0.0019605
0.00316211
0.00458102
0.00622524
0.00812622
0.0103865
0.0132681
0.0173679
-0.0077036
-0.00693873
-0.0042251
-0.00156721
0.00049804
0.00192469
0.00278607
0.0031631
0.00311994
0.00273131
0.00210531
0.00137288
0.00065057
1.54274e-05
-0.00049709
-0.000883094
-0.00115978
-0.0013557
-0.00150136
-0.00162336
-0.0017417
-0.00186987
-0.0020155
-0.00218218
-0.00237031
-0.00257884
-0.00280555
-0.00304815
-0.003304
-0.00357102
-0.00384737
-0.00413201
-0.00442426
-0.00472405
-0.00503162
-0.00534754
-0.00567269
-0.00600799
-0.00635463
-0.00671364
-0.00708612
-0.0074729
-0.00787471
-0.00829211
-0.0087253
-0.00917424
-0.00963792
-0.0101149
-0.0106017
-0.0110943
-0.0115859
-0.0120697
-0.0125367
-0.0129775
-0.013383
-0.0137445
-0.014057
-0.0143172
-0.0145258
-0.014688
-0.0148103
-0.0149029
-0.0149764
-0.0150404
-0.0151034
-0.0151733
-0.0152539
-0.0153495
-0.0154627
-0.0155934
-0.015742
-0.0159086
-0.0160914
-0.0162895
-0.0165017
-0.0167273
-0.016964
-0.0172111
-0.0174673
-0.0177312
-0.0180015
-0.0182771
-0.0185575
-0.0188421
-0.0191303
-0.0194222
-0.0197174
-0.0200163
-0.020319
-0.0206258
-0.0209363
-0.0212505
-0.021567
-0.0218857
-0.0222058
-0.0225281
-0.0228525
-0.0231815
-0.023514
-0.0238518
-0.0241935
-0.0245381
-0.0248853
-0.0252335
-0.0255821
-0.0259341
-0.0262878
-0.0266473
-0.0270124
-0.027381
-0.0277529
-0.0281264
-0.0284982
-0.0288728
-0.0292493
-0.0296314
-0.0300204
-0.0304138
-0.0308083
-0.0312042
-0.0315981
-0.0319951
-0.0323966
-0.0328055
-0.0332211
-0.0336364
-0.0340482
-0.0344656
-0.0348857
-0.0353114
-0.0357412
-0.0361712
-0.0366059
-0.0370469
-0.037481
-0.0379221
-0.0383724
-0.0388225
-0.0392748
-0.0397296
-0.0401808
-0.0406499
-0.0411222
-0.0415774
-0.0420402
-0.0425284
-0.0430094
-0.0434849
-0.0439614
-0.0444378
-0.0449313
-0.0454503
-0.0459412
-0.0464074
-0.0469082
-0.0474446
-0.0479503
-0.0484394
-0.0489549
-0.0494895
-0.0500051
-0.0505211
-0.0510504
-0.0515874
-0.0521173
-0.052654
-0.053195
-0.0537423
-0.0542868
-0.0548389
-0.0553923
-0.0559532
-0.0565121
-0.0570785
-0.0576448
-0.0582193
-0.058792
-0.0593731
-0.0599523
-0.0605397
-0.0611248
-0.0617196
-0.0623109
-0.062911
-0.0635068
-0.0641122
-0.0647118
-0.0653203
-0.0659208
-0.0665301
-0.0671282
-0.0677333
-0.0683221
-0.0689147
-0.0694821
-0.0700456
-0.0705661
-0.0710666
-0.0714775
-0.0718508
-0.00829176
-0.00737298
-0.00449944
-0.00175192
0.000411968
0.00194402
0.00287318
0.00325914
0.00318213
0.00275093
0.0020978
0.00135562
0.000633382
9.89984e-07
-0.000510103
-0.00089672
-0.00117503
-0.00137239
-0.00151859
-0.0016402
-0.00175753
-0.00188452
-0.00202909
-0.00219503
-0.00238271
-0.00259108
-0.00281776
-0.00306041
-0.0033163
-0.00358332
-0.00385959
-0.00414405
-0.00443608
-0.00473553
-0.00504272
-0.00535813
-0.00568273
-0.00601733
-0.00636319
-0.00672127
-0.00709267
-0.00747825
-0.00787863
-0.00829445
-0.00872571
-0.00917258
-0.00963371
-0.0101078
-0.0105909
-0.0110796
-0.0115673
-0.0120473
-0.012511
-0.0129495
-0.0133544
-0.0137168
-0.0140309
-0.0142935
-0.0145046
-0.0146694
-0.0147941
-0.0148889
-0.0149644
-0.0150302
-0.0150947
-0.0151661
-0.0152478
-0.015344
-0.0154578
-0.0155893
-0.0157381
-0.0159049
-0.0160881
-0.0162864
-0.0164987
-0.0167245
-0.0169613
-0.0172084
-0.0174646
-0.0177286
-0.0179989
-0.0182745
-0.0185549
-0.0188397
-0.0191278
-0.0194199
-0.0197151
-0.0200142
-0.0203169
-0.0206238
-0.0209343
-0.0212485
-0.0215651
-0.0218838
-0.0222041
-0.0225264
-0.022851
-0.02318
-0.0235125
-0.0238504
-0.0241921
-0.0245367
-0.0248839
-0.0252322
-0.0255809
-0.025933
-0.0262868
-0.0266462
-0.0270114
-0.02738
-0.0277519
-0.0281254
-0.0284973
-0.028872
-0.0292485
-0.0296306
-0.0300197
-0.0304131
-0.0308076
-0.0312035
-0.0315974
-0.0319945
-0.0323959
-0.0328049
-0.0332206
-0.0336359
-0.0340476
-0.034465
-0.0348852
-0.0353109
-0.0357407
-0.0361707
-0.0366055
-0.0370465
-0.0374806
-0.0379217
-0.0383721
-0.0388222
-0.0392745
-0.0397292
-0.0401804
-0.0406496
-0.041122
-0.0415771
-0.0420398
-0.0425282
-0.0430092
-0.0434847
-0.0439611
-0.0444375
-0.044931
-0.0454502
-0.0459411
-0.046407
-0.046908
-0.0474445
-0.0479503
-0.0484391
-0.0489548
-0.0494894
-0.050005
-0.0505209
-0.0510503
-0.0515874
-0.0521172
-0.0526538
-0.0531949
-0.0537422
-0.0542867
-0.0548389
-0.0553922
-0.0559532
-0.056512
-0.0570784
-0.0576447
-0.0582192
-0.0587919
-0.0593731
-0.0599522
-0.0605397
-0.0611248
-0.0617195
-0.0623109
-0.0629109
-0.0635068
-0.0641122
-0.0647118
-0.0653203
-0.0659208
-0.06653
-0.0671282
-0.0677333
-0.0683221
-0.0689147
-0.0694821
-0.0700457
-0.0705661
-0.0710669
-0.0714786
-0.0718512
-0.00828694
-0.00778795
-0.00515774
-0.0023533
7.00099e-05
0.00187484
0.00298801
0.00342431
0.00329668
0.00278764
0.00208096
0.00131962
0.000599311
-2.48733e-05
-0.000529537
-0.000913631
-0.00119235
-0.00139105
-0.00153805
-0.0016594
-0.00177558
-0.00190106
-0.00204424
-0.00220921
-0.00239646
-0.00260485
-0.00283188
-0.00307502
-0.00333145
-0.00359892
-0.00387553
-0.00416017
-0.00445223
-0.00475155
-0.00505845
-0.00537343
-0.00569738
-0.00603119
-0.00637598
-0.0067328
-0.0071026
-0.00748631
-0.00788438
-0.0082975
-0.00872544
-0.00916829
-0.00962437
-0.0100922
-0.010568
-0.0110481
-0.0115269
-0.0119977
-0.0124531
-0.0128843
-0.0132835
-0.0136425
-0.0139559
-0.0142207
-0.0144367
-0.0146084
-0.0147416
-0.0148453
-0.014929
-0.0150027
-0.0150738
-0.0151502
-0.0152365
-0.015336
-0.015452
-0.0155857
-0.0157366
-0.0159049
-0.0160893
-0.0162886
-0.0165012
-0.0167271
-0.016964
-0.017211
-0.0174668
-0.0177304
-0.0180003
-0.0182755
-0.0185554
-0.0188398
-0.0191278
-0.0194198
-0.0197151
-0.0200142
-0.020317
-0.0206238
-0.0209342
-0.021248
-0.0215642
-0.0218827
-0.0222028
-0.0225253
-0.0228501
-0.0231794
-0.0235121
-0.02385
-0.0241915
-0.0245357
-0.0248826
-0.0252308
-0.0255795
-0.025932
-0.0262861
-0.0266457
-0.0270108
-0.0273791
-0.0277507
-0.028124
-0.0284959
-0.0288709
-0.0292478
-0.0296301
-0.030019
-0.0304121
-0.0308064
-0.0312023
-0.0315963
-0.0319937
-0.0323954
-0.0328043
-0.0332197
-0.0336348
-0.0340466
-0.0344642
-0.0348844
-0.0353103
-0.0357401
-0.0361699
-0.0366046
-0.0370457
-0.0374799
-0.0379211
-0.0383715
-0.0388214
-0.0392738
-0.0397287
-0.0401798
-0.040649
-0.0411215
-0.0415765
-0.0420393
-0.0425277
-0.0430086
-0.0434841
-0.0439608
-0.0444371
-0.0449305
-0.0454498
-0.0459408
-0.0464066
-0.0469076
-0.0474443
-0.0479499
-0.0484388
-0.0489545
-0.0494892
-0.0500047
-0.0505207
-0.0510501
-0.0515872
-0.052117
-0.0526536
-0.0531947
-0.053742
-0.0542866
-0.0548387
-0.0553921
-0.055953
-0.0565119
-0.0570783
-0.0576446
-0.0582191
-0.0587919
-0.059373
-0.0599522
-0.0605396
-0.0611247
-0.0617195
-0.0623109
-0.0629109
-0.0635068
-0.0641122
-0.0647119
-0.0653203
-0.0659209
-0.0665301
-0.0671284
-0.0677335
-0.0683225
-0.0689151
-0.0694827
-0.0700467
-0.0705676
-0.071069
-0.0714856
-0.071858
-0.00615766
-0.00638759
-0.0056259
-0.00333557
-0.000561116
0.00167271
0.00303375
0.00352239
0.00334075
0.00276151
0.0020105
0.00123635
0.000523619
-8.61163e-05
-0.000578008
-0.000954171
-0.00122947
-0.00142717
-0.00157356
-0.00169357
-0.00180754
-0.00193031
-0.00207088
-0.00223371
-0.00241955
-0.0026272
-0.00285406
-0.00309735
-0.00335409
-0.00362186
-0.00389867
-0.00418335
-0.00447526
-0.0047743
-0.00508068
-0.00539499
-0.00571801
-0.0060507
-0.006394
-0.00674903
-0.00711656
-0.00749759
-0.00789238
-0.00830159
-0.00872483
-0.00916201
-0.00961146
-0.0100715
-0.0105388
-0.0110094
-0.0114782
-0.0119387
-0.0123843
-0.0128071
-0.0131996
-0.0135549
-0.0138676
-0.0141353
-0.0143574
-0.0145373
-0.0146802
-0.0147941
-0.0148874
-0.0149697
-0.0150484
-0.0151308
-0.0152221
-0.0153259
-0.015445
-0.0155813
-0.0157344
-0.0159041
-0.0160895
-0.0162897
-0.0165028
-0.0167288
-0.0169657
-0.0172126
-0.017468
-0.017731
-0.0180003
-0.0182749
-0.0185543
-0.0188382
-0.0191259
-0.0194179
-0.0197132
-0.0200127
-0.0203155
-0.0206224
-0.0209325
-0.0212459
-0.0215616
-0.0218796
-0.0221996
-0.0225223
-0.0228476
-0.0231776
-0.0235107
-0.0238486
-0.0241899
-0.0245335
-0.0248799
-0.0252278
-0.0255767
-0.0259297
-0.0262845
-0.0266445
-0.0270096
-0.0273775
-0.0277484
-0.0281213
-0.0284934
-0.0288688
-0.0292464
-0.0296291
-0.0300179
-0.0304106
-0.0308043
-0.0311999
-0.0315943
-0.0319923
-0.0323944
-0.0328033
-0.0332183
-0.0336331
-0.0340448
-0.0344626
-0.0348832
-0.0353093
-0.035739
-0.0361687
-0.0366031
-0.0370443
-0.0374787
-0.0379201
-0.0383704
-0.0388203
-0.0392725
-0.0397275
-0.0401788
-0.0406479
-0.0411203
-0.0415756
-0.0420385
-0.0425266
-0.0430074
-0.0434831
-0.0439601
-0.0444366
-0.0449296
-0.0454484
-0.0459397
-0.0464062
-0.0469072
-0.0474433
-0.047949
-0.0484382
-0.048954
-0.0494885
-0.050004
-0.0505201
-0.0510496
-0.0515866
-0.0521164
-0.0526532
-0.0531943
-0.0537415
-0.0542862
-0.0548383
-0.0553917
-0.0559526
-0.0565116
-0.0570779
-0.0576444
-0.0582188
-0.0587916
-0.0593727
-0.059952
-0.0605394
-0.0611246
-0.0617193
-0.0623108
-0.0629107
-0.0635068
-0.0641121
-0.0647119
-0.0653203
-0.0659212
-0.0665302
-0.0671289
-0.0677338
-0.0683233
-0.0689159
-0.0694843
-0.0700485
-0.0705713
-0.0710736
-0.071499
-0.0718728
-0.00905884
-0.00868497
-0.00602938
-0.00291452
-8.91732e-05
0.00200971
0.00324636
0.00364606
0.00340334
0.00278097
0.00200119
0.00121223
0.000495757
-0.000111601
-0.000599403
-0.000972572
-0.00124702
-0.00144548
-0.00159299
-0.00171351
-0.00182702
-0.00194858
-0.00208766
-0.00224918
-0.00243423
-0.0026417
-0.00286894
-0.00311299
-0.00337066
-0.00363936
-0.00391695
-0.00420221
-0.00449443
-0.00479353
-0.00509968
-0.0054135
-0.00573571
-0.00606728
-0.00640908
-0.00676219
-0.00712732
-0.00750538
-0.00789659
-0.00830142
-0.0087194
-0.00915025
-0.00959239
-0.010044
-0.010502
-0.0109625
-0.0114207
-0.0118707
-0.0123063
-0.0127205
-0.0131065
-0.0134582
-0.0137706
-0.0140413
-0.0142697
-0.0144581
-0.0146111
-0.0147356
-0.0148392
-0.0149308
-0.0150179
-0.0151072
-0.0152043
-0.015313
-0.015436
-0.015575
-0.0157303
-0.0159017
-0.0160881
-0.0162892
-0.016503
-0.0167293
-0.0169664
-0.0172133
-0.0174684
-0.0177309
-0.0179996
-0.0182737
-0.0185524
-0.0188359
-0.0191234
-0.0194154
-0.019711
-0.0200108
-0.0203139
-0.0206208
-0.0209306
-0.0212435
-0.0215586
-0.0218761
-0.0221959
-0.0225189
-0.0228447
-0.0231754
-0.0235091
-0.023847
-0.0241881
-0.024531
-0.0248765
-0.0252242
-0.0255732
-0.0259269
-0.0262827
-0.0266431
-0.0270083
-0.0273756
-0.0277455
-0.0281179
-0.02849
-0.0288661
-0.0292447
-0.029628
-0.0300166
-0.0304086
-0.0308014
-0.0311968
-0.0315915
-0.0319905
-0.0323933
-0.0328019
-0.0332164
-0.0336307
-0.0340422
-0.0344604
-0.0348816
-0.0353077
-0.0357375
-0.0361669
-0.0366008
-0.0370422
-0.0374771
-0.0379185
-0.0383689
-0.0388186
-0.0392705
-0.0397258
-0.0401775
-0.0406462
-0.0411185
-0.0415743
-0.0420372
-0.0425249
-0.0430056
-0.0434813
-0.0439588
-0.0444359
-0.0449284
-0.0454461
-0.0459379
-0.0464057
-0.0469065
-0.0474415
-0.0479474
-0.0484374
-0.0489531
-0.0494871
-0.0500028
-0.0505192
-0.0510487
-0.0515855
-0.0521156
-0.0526523
-0.0531934
-0.0537406
-0.0542855
-0.0548375
-0.055391
-0.0559519
-0.056511
-0.0570773
-0.0576439
-0.0582182
-0.0587912
-0.0593722
-0.0599516
-0.0605389
-0.0611243
-0.0617188
-0.0623107
-0.0629104
-0.0635068
-0.0641119
-0.0647121
-0.0653202
-0.0659215
-0.0665303
-0.0671296
-0.0677343
-0.0683247
-0.0689171
-0.0694871
-0.0700512
-0.0705776
-0.071081
-0.0715182
-0.0718963
-0.00991641
-0.00908643
-0.00570091
-0.00223644
0.000517247
0.00240696
0.0034368
0.00371299
0.0034154
0.00276716
0.00197377
0.00117739
0.000457665
-0.000149881
-0.000635944
-0.00100666
-0.00127898
-0.00147596
-0.00162236
-0.00174169
-0.00185366
-0.00197333
-0.00211041
-0.00227015
-0.00245385
-0.00266058
-0.00288766
-0.00313204
-0.00339034
-0.00365976
-0.003938
-0.00422374
-0.00451618
-0.00481521
-0.00512097
-0.00543407
-0.00575522
-0.00608538
-0.00642537
-0.00677622
-0.00713858
-0.00751328
-0.00790045
-0.00830045
-0.0087127
-0.00913679
-0.00957122
-0.0100141
-0.0104625
-0.0109127
-0.0113603
-0.0117999
-0.0122257
-0.0126316
-0.0130112
-0.0133593
-0.0136713
-0.0139449
-0.0141792
-0.014376
-0.0145389
-0.0146742
-0.0147884
-0.0148898
-0.0149856
-0.0150823
-0.0151855
-0.0152992
-0.0154261
-0.0155681
-0.0157256
-0.0158986
-0.0160863
-0.0162884
-0.016503
-0.0167297
-0.016967
-0.0172139
-0.0174689
-0.0177309
-0.017999
-0.0182724
-0.0185505
-0.0188336
-0.0191209
-0.0194129
-0.0197088
-0.0200089
-0.0203123
-0.0206192
-0.0209288
-0.0212409
-0.0215554
-0.0218723
-0.0221918
-0.0225152
-0.0228416
-0.0231732
-0.0235076
-0.0238455
-0.0241861
-0.0245283
-0.0248727
-0.0252201
-0.0255693
-0.0259238
-0.0262808
-0.0266417
-0.0270069
-0.0273735
-0.0277421
-0.0281139
-0.0284862
-0.0288631
-0.0292428
-0.0296267
-0.0300151
-0.0304062
-0.0307981
-0.0311931
-0.0315884
-0.0319884
-0.032392
-0.0328004
-0.0332142
-0.0336279
-0.0340391
-0.0344579
-0.0348797
-0.035306
-0.0357358
-0.0361648
-0.0365982
-0.0370396
-0.0374751
-0.0379168
-0.0383672
-0.0388165
-0.039268
-0.0397237
-0.0401759
-0.0406441
-0.0411163
-0.0415726
-0.0420355
-0.0425229
-0.0430035
-0.0434792
-0.0439572
-0.044435
-0.0449269
-0.045443
-0.0459356
-0.0464051
-0.0469057
-0.0474391
-0.0479454
-0.0484364
-0.048952
-0.0494852
-0.0500014
-0.0505181
-0.0510475
-0.051584
-0.0521144
-0.0526512
-0.0531924
-0.0537394
-0.0542845
-0.0548365
-0.0553902
-0.0559509
-0.0565102
-0.0570764
-0.0576432
-0.0582174
-0.0587906
-0.0593714
-0.0599511
-0.0605382
-0.061124
-0.0617182
-0.0623104
-0.0629099
-0.0635067
-0.0641115
-0.0647122
-0.06532
-0.065922
-0.0665304
-0.0671306
-0.0677348
-0.0683266
-0.0689185
-0.0694908
-0.0700547
-0.0705859
-0.0710913
-0.0715407
-0.0719262
-0.0102896
-0.00956288
-0.00599936
-0.00231211
0.000576938
0.00250655
0.00349753
0.00370928
0.00337077
0.00271015
0.00191585
0.00111978
0.000399627
-0.000208117
-0.000693173
-0.00106115
-0.00132946
-0.00152206
-0.00166444
-0.00178031
-0.00188922
-0.00200609
-0.00214053
-0.00229789
-0.0024796
-0.0026849
-0.00291117
-0.00315532
-0.00341383
-0.00368369
-0.00396242
-0.00424849
-0.00454105
-0.00483985
-0.00514506
-0.0054572
-0.00577703
-0.00610546
-0.0064433
-0.00679152
-0.00715069
-0.00752161
-0.0079043
-0.00829903
-0.00870516
-0.00912217
-0.00954859
-0.00998254
-0.0104212
-0.0108611
-0.0112982
-0.0117274
-0.0121437
-0.0125413
-0.0129148
-0.0132593
-0.0135706
-0.0138467
-0.0140864
-0.0142913
-0.014464
-0.0146099
-0.014735
-0.0148465
-0.0149514
-0.0150559
-0.0151655
-0.0152844
-0.0154154
-0.0155604
-0.0157201
-0.0158949
-0.0160839
-0.016287
-0.0165025
-0.0167299
-0.0169676
-0.0172146
-0.0174694
-0.017731
-0.0179984
-0.0182711
-0.0185486
-0.0188312
-0.0191182
-0.0194104
-0.0197066
-0.0200071
-0.0203108
-0.0206176
-0.0209268
-0.0212382
-0.0215518
-0.0218682
-0.0221874
-0.0225112
-0.0228384
-0.0231708
-0.023506
-0.0238438
-0.024184
-0.0245252
-0.0248685
-0.0252156
-0.0255651
-0.0259205
-0.0262788
-0.0266402
-0.0270052
-0.0273711
-0.0277384
-0.0281096
-0.0284821
-0.0288599
-0.0292409
-0.0296254
-0.0300135
-0.0304036
-0.0307945
-0.0311892
-0.031585
-0.0319861
-0.0323906
-0.0327988
-0.0332117
-0.0336247
-0.0340359
-0.034455
-0.0348777
-0.0353042
-0.0357339
-0.0361625
-0.0365953
-0.0370367
-0.037473
-0.037915
-0.0383653
-0.0388143
-0.0392654
-0.0397214
-0.0401742
-0.0406419
-0.0411139
-0.0415708
-0.0420338
-0.0425205
-0.0430012
-0.0434769
-0.0439555
-0.0444339
-0.0449252
-0.0454398
-0.0459332
-0.0464044
-0.0469047
-0.0474364
-0.0479432
-0.0484353
-0.0489508
-0.0494831
-0.0499998
-0.0505169
-0.0510462
-0.0515824
-0.0521132
-0.0526499
-0.0531912
-0.053738
-0.0542835
-0.0548353
-0.0553892
-0.0559497
-0.0565094
-0.0570753
-0.0576425
-0.0582164
-0.05879
-0.0593704
-0.0599506
-0.0605374
-0.0611237
-0.0617175
-0.0623102
-0.0629093
-0.0635067
-0.064111
-0.0647125
-0.0653197
-0.0659227
-0.0665305
-0.0671319
-0.0677355
-0.068329
-0.0689203
-0.0694952
-0.0700592
-0.0705956
-0.0711039
-0.0715648
-0.0719599
-0.0108097
-0.0101478
-0.00648078
-0.00255072
0.00055388
0.00261203
0.00364066
0.00382683
0.00344
0.00273633
0.00191238
0.00109783
0.000366507
-0.000247579
-0.000735288
-0.0011029
-0.00136867
-0.00155768
-0.00169638
-0.00180904
-0.00191533
-0.00203003
-0.0021626
-0.00231834
-0.00249872
-0.0027031
-0.00292895
-0.0031732
-0.00343224
-0.0037029
-0.0039825
-0.0042693
-0.00456233
-0.00486124
-0.00516614
-0.00547752
-0.00579611
-0.00612285
-0.00645848
-0.00680397
-0.0071598
-0.00752674
-0.00790474
-0.008294
-0.00869381
-0.00910359
-0.00952186
-0.00994677
-0.0103757
-0.0108053
-0.011232
-0.011651
-0.0120578
-0.0124473
-0.0128146
-0.0131554
-0.0134659
-0.0137442
-0.0139889
-0.0142013
-0.0143835
-0.0145399
-0.014676
-0.014798
-0.0149125
-0.0150253
-0.0151418
-0.0152662
-0.0154014
-0.0155498
-0.015712
-0.0158888
-0.0160794
-0.0162838
-0.0165005
-0.0167287
-0.016967
-0.0172141
-0.0174689
-0.0177301
-0.0179969
-0.0182689
-0.0185458
-0.018828
-0.0191148
-0.0194071
-0.0197037
-0.0200047
-0.0203087
-0.0206155
-0.0209243
-0.0212349
-0.0215476
-0.0218634
-0.0221823
-0.0225067
-0.0228348
-0.0231681
-0.0235041
-0.0238418
-0.0241813
-0.0245215
-0.0248638
-0.0252106
-0.0255605
-0.0259169
-0.0262766
-0.0266386
-0.0270033
-0.0273683
-0.0277343
-0.0281048
-0.0284777
-0.0288565
-0.0292388
-0.0296239
-0.0300116
-0.0304006
-0.0307905
-0.0311849
-0.0315814
-0.0319837
-0.0323892
-0.032797
-0.0332089
-0.0336214
-0.0340323
-0.034452
-0.0348756
-0.0353022
-0.0357318
-0.03616
-0.0365921
-0.0370337
-0.0374709
-0.0379129
-0.0383632
-0.0388119
-0.0392625
-0.0397189
-0.0401724
-0.0406395
-0.0411114
-0.0415688
-0.0420318
-0.042518
-0.0429988
-0.0434745
-0.0439536
-0.0444326
-0.0449234
-0.0454365
-0.0459307
-0.0464036
-0.0469036
-0.0474336
-0.0479409
-0.0484341
-0.0489494
-0.0494809
-0.0499981
-0.0505155
-0.0510448
-0.0515806
-0.0521119
-0.0526485
-0.0531899
-0.0537365
-0.0542824
-0.054834
-0.0553881
-0.0559484
-0.0565085
-0.0570741
-0.0576417
-0.0582153
-0.0587893
-0.0593694
-0.0599501
-0.0605365
-0.0611233
-0.0617167
-0.06231
-0.0629086
-0.0635068
-0.0641105
-0.0647129
-0.0653195
-0.0659235
-0.0665306
-0.0671334
-0.0677363
-0.0683316
-0.0689225
-0.0695001
-0.0700646
-0.0706061
-0.0711184
-0.0715895
-0.0719954
-0.0112253
-0.0105771
-0.00682983
-0.00273719
0.000534185
0.00271916
0.00381258
0.00399378
0.00355821
0.00279581
0.00192372
0.00107696
0.000326633
-0.000297422
-0.00078873
-0.00115559
-0.00141792
-0.00160229
-0.00173618
-0.00184451
-0.00194714
-0.00205882
-0.00218889
-0.00234255
-0.00252129
-0.00272446
-0.00294963
-0.00319369
-0.00345303
-0.00372427
-0.00400458
-0.00429199
-0.0045854
-0.00488435
-0.00518886
-0.00549937
-0.00581654
-0.00614136
-0.00647448
-0.00681693
-0.00716906
-0.00753167
-0.00790463
-0.00828805
-0.00868123
-0.00908344
-0.00949333
-0.009909
-0.0103281
-0.0107474
-0.0111636
-0.0115725
-0.0119699
-0.0123514
-0.0127125
-0.0130496
-0.013359
-0.0136391
-0.0138885
-0.0141081
-0.0142995
-0.0144665
-0.0146135
-0.0147463
-0.0148707
-0.0149922
-0.015116
-0.0152463
-0.0153861
-0.0155381
-0.015703
-0.0158819
-0.0160743
-0.0162801
-0.016498
-0.0167272
-0.0169661
-0.0172135
-0.0174683
-0.0177291
-0.0179953
-0.0182666
-0.0185429
-0.0188246
-0.0191113
-0.0194038
-0.0197009
-0.0200023
-0.0203067
-0.0206133
-0.0209217
-0.0212314
-0.0215432
-0.0218584
-0.0221772
-0.0225021
-0.0228312
-0.0231654
-0.0235022
-0.0238397
-0.0241785
-0.0245177
-0.0248589
-0.0252055
-0.0255559
-0.0259133
-0.0262744
-0.0266369
-0.0270012
-0.0273653
-0.02773
-0.0280998
-0.0284731
-0.028853
-0.0292367
-0.0296224
-0.0300097
-0.0303975
-0.0307863
-0.0311805
-0.0315777
-0.0319812
-0.0323877
-0.0327951
-0.0332061
-0.0336178
-0.0340286
-0.0344489
-0.0348734
-0.0353002
-0.0357296
-0.0361573
-0.0365888
-0.0370305
-0.0374686
-0.0379107
-0.038361
-0.0388093
-0.0392596
-0.0397162
-0.0401705
-0.040637
-0.0411087
-0.0415666
-0.0420297
-0.0425153
-0.0429964
-0.0434719
-0.0439515
-0.0444312
-0.0449216
-0.045433
-0.0459279
-0.0464026