/*--------------------------------*- C++ -*----------------------------------*\
| =========                 |                                                 |
| \\      /  F ield         | OpenFOAM: The Open Source CFD Toolbox           |
|  \\    /   O peration     | Version:  v2012                                 |
|   \\  /    A nd           | Website:  www.openfoam.com                      |
|    \\/     M anipulation  |                                                 |
\*---------------------------------------------------------------------------*/
FoamFile
{
    version     2.0;
    format      ascii;
    class       surfaceScalarField;
    location    "1";
    object      phi;
}
// * * * * * * * * * * * * * * * * * * * * * * * * * * * * * * * * * * * * * //

dimensions      [0 3 -1 0 0 0 0];
oriented        oriented;


internalField   nonuniform List<scalar> 
17340
(
3.87605e-06
-1.30571e-07
3.88427e-06
9.56424e-08
3.87681e-06
-8.35343e-08
3.88548e-06
6.55243e-08
3.87811e-06
-5.63595e-08
3.88825e-06
4.21494e-08
3.88092e-06
-3.70585e-08
3.88991e-06
2.81925e-08
3.88393e-06
-2.54824e-08
3.891e-06
1.89954e-08
3.8834e-06
-1.7067e-08
3.88614e-06
1.5983e-08
3.88265e-06
-1.01916e-08
3.88517e-06
9.44265e-09
3.8829e-06
-5.36401e-09
3.885e-06
4.71972e-09
3.88132e-06
2.20506e-10
3.87624e-06
8.45735e-09
3.8628e-06
1.82957e-08
2.66906e-08
3.84747e-06
4.17964e-06
-1.24353e-07
4.19343e-06
8.18582e-08
4.18287e-06
-7.29775e-08
4.19435e-06
5.40429e-08
4.18514e-06
-4.71528e-08
4.1965e-06
3.07887e-08
4.18874e-06
-2.92965e-08
4.19702e-06
1.99169e-08
4.19301e-06
-2.14783e-08
4.19475e-06
1.72551e-08
4.19406e-06
-1.63714e-08
4.19467e-06
1.53677e-08
4.19449e-06
-1.00103e-08
4.1939e-06
1.00316e-08
4.19558e-06
-7.04179e-09
4.19204e-06
8.25847e-09
4.19392e-06
-1.65747e-09
4.18303e-06
1.93477e-08
4.17835e-06
2.29728e-08
4.49171e-08
4.16013e-06
4.51276e-06
-1.17051e-07
4.52541e-06
6.92125e-08
4.51413e-06
-6.16974e-08
4.52431e-06
4.38562e-08
4.51539e-06
-3.82285e-08
4.52564e-06
2.05391e-08
4.51835e-06
-2.20117e-08
4.52636e-06
1.19113e-08
4.52141e-06
-1.65254e-08
4.52578e-06
1.28821e-08
4.52147e-06
-1.20593e-08
4.52257e-06
1.42631e-08
4.52198e-06
-9.41631e-09
4.52115e-06
1.08561e-08
4.52241e-06
-8.30073e-09
4.52263e-06
8.04161e-09
4.5242e-06
-3.2336e-09
4.5109e-06
3.26492e-08
4.49482e-06
3.90575e-08
6.10784e-08
4.47866e-06
4.8736e-06
-1.09704e-07
4.886e-06
5.68154e-08
4.87374e-06
-4.94417e-08
4.88426e-06
3.33386e-08
4.87411e-06
-2.80806e-08
4.88614e-06
8.51173e-09
4.87534e-06
-1.12158e-08
4.88931e-06
-2.05666e-09
4.87624e-06
-3.45596e-09
4.89231e-06
-3.18245e-09
4.87686e-06
3.38936e-09
4.89378e-06
-2.65646e-09
4.87806e-06
6.30561e-09
4.89041e-06
-1.49407e-09
4.87431e-06
7.79082e-09
4.88455e-06
-2.19872e-09
4.87849e-06
2.82913e-09
4.93037e-06
-1.92317e-08
4.98215e-06
-1.27182e-08
-5.42065e-09
5.04865e-06
5.26303e-06
-1.02085e-07
5.27589e-06
4.39525e-08
5.26385e-06
-3.73993e-08
5.27302e-06
2.41682e-08
5.26539e-06
-2.045e-08
5.27084e-06
3.05791e-09
5.26865e-06
-9.02605e-09
5.27031e-06
-3.71368e-09
5.26963e-06
-2.77566e-09
5.26925e-06
-2.8078e-09
5.26878e-06
3.86082e-09
5.26772e-06
-1.59477e-09
5.26838e-06
5.65048e-09
5.26625e-06
6.28442e-10
5.26843e-06
5.60991e-09
5.26764e-06
-1.4061e-09
5.26648e-06
3.98856e-09
5.25398e-06
-6.733e-09
5.23899e-06
2.27534e-09
1.26771e-08
5.22089e-06
5.68345e-06
-9.40712e-08
5.69712e-06
3.02752e-08
5.6846e-06
-2.48789e-08
5.6939e-06
1.48673e-08
5.68641e-06
-1.29544e-08
5.68994e-06
-4.70758e-10
5.68977e-06
-8.85969e-09
5.68947e-06
-3.41656e-09
5.69308e-06
-6.38575e-09
5.68831e-06
1.96992e-09
5.69268e-06
-5.09707e-10
5.68668e-06
4.39713e-09
5.68988e-06
2.45414e-09
5.68456e-06
5.94481e-09
5.68818e-06
1.99096e-09
5.68178e-06
4.9948e-09
5.68611e-06
-3.42013e-10
5.67516e-06
4.22118e-09
5.67173e-06
5.70541e-09
2.81448e-08
5.65626e-06
6.13765e-06
-8.58514e-08
6.15152e-06
1.64097e-08
6.14243e-06
-1.57919e-08
6.14784e-06
9.45628e-09
6.14354e-06
-8.6594e-09
6.14221e-06
8.60171e-10
6.14182e-06
-8.47006e-09
6.1451e-06
-6.69399e-09
6.14136e-06
-2.6454e-09
6.14316e-06
1.73639e-10
6.14099e-06
1.65908e-09
6.14192e-06
3.46136e-09
6.13977e-06
4.61284e-09
6.14029e-06
5.4227e-09
6.13817e-06
4.11315e-09
6.13831e-06
4.8554e-09
6.13396e-06
3.99865e-09
6.12933e-06
8.85232e-09
6.12133e-06
1.37123e-08
3.15648e-08
6.11791e-06
6.62844e-06
-7.77295e-08
6.64133e-06
3.51902e-09
6.63864e-06
-1.30995e-08
6.63759e-06
1.05048e-08
6.63957e-06
-1.06447e-08
6.63052e-06
9.91722e-09
6.63784e-06
-1.57918e-08
6.63209e-06
-9.47431e-10
6.63405e-06
-4.59782e-09
6.63065e-06
3.56627e-09
6.63279e-06
-4.79632e-10
6.62952e-06
6.73255e-09
6.63065e-06
3.48118e-09
6.6285e-06
7.5766e-09
6.62839e-06
4.22074e-09
6.62583e-06
7.4186e-09
6.62294e-06
6.89006e-09
6.61855e-06
1.32358e-08
6.61272e-06
1.95469e-08
3.34968e-08
6.61079e-06
7.15821e-06
-6.95053e-08
7.1721e-06
-1.03788e-08
7.16621e-06
-7.20674e-09
7.17177e-06
4.94719e-09
7.15812e-06
3.00803e-09
7.17065e-06
-2.61868e-09
7.16461e-06
-9.74894e-09
7.16461e-06
-9.4632e-10
7.16273e-06
-2.72298e-09
7.16317e-06
3.12944e-09
7.15978e-06
2.91266e-09
7.1593e-06
7.21218e-09
7.15807e-06
4.70531e-09
7.1577e-06
7.95069e-09
7.1561e-06
5.82443e-09
7.1542e-06
9.31253e-09
7.15099e-06
1.00974e-08
7.14746e-06
1.67677e-08
7.14395e-06
2.30609e-08
3.44992e-08
7.14295e-06
7.73093e-06
-6.1827e-08
7.74171e-06
-2.11646e-08
7.74317e-06
-8.66603e-09
7.74225e-06
5.8643e-09
7.73888e-06
6.38321e-09
7.7399e-06
-3.64298e-09
7.73415e-06
-4.00049e-09
7.73105e-06
2.16231e-09
7.7327e-06
-4.38207e-09
7.73215e-06
3.68522e-09
7.731e-06
4.06168e-09
7.73015e-06
8.06611e-09
7.72909e-06
5.75645e-09
7.72849e-06
8.55573e-09
7.72665e-06
7.66634e-09
7.72487e-06
1.10883e-08
7.72189e-06
1.30834e-08
7.71917e-06
1.94797e-08
7.71677e-06
2.54697e-08
3.51266e-08
7.71614e-06
8.34916e-06
-5.45267e-08
8.35893e-06
-3.09328e-08
8.36283e-06
-1.25668e-08
8.35846e-06
1.02335e-08
8.36233e-06
2.51613e-09
8.35244e-06
6.24794e-09
8.35082e-06
-2.3894e-09
8.35266e-06
3.24541e-10
8.34969e-06
-1.41311e-09
8.34835e-06
5.02763e-09
8.34753e-06
4.88444e-09
8.34697e-06
8.62149e-09
8.34581e-06
6.92274e-09
8.34486e-06
9.5061e-09
8.34314e-06
9.37808e-09
8.3413e-06
1.29349e-08
8.33884e-06
1.55383e-08
8.3367e-06
2.16228e-08
8.33501e-06
2.71571e-08
3.52808e-08
8.33486e-06
9.01688e-06
-4.77604e-08
9.02602e-06
-4.00702e-08
9.02892e-06
-1.54706e-08
9.02832e-06
1.08366e-08
9.02752e-06
3.31303e-09
9.01871e-06
1.50556e-08
9.01751e-06
-1.1812e-09
9.01837e-06
-5.38026e-10
9.01589e-06
1.06964e-09
9.0142e-06
6.71297e-09
9.01339e-06
5.69646e-09
9.01303e-06
8.98142e-09
9.01185e-06
8.09882e-09
9.01073e-06
1.06253e-08
9.00909e-06
1.10235e-08
9.00733e-06
1.46909e-08
9.00533e-06
1.75419e-08
9.00373e-06
2.32243e-08
9.00263e-06
2.82513e-08
3.52319e-08
9.00268e-06
9.73792e-06
-4.15798e-08
9.74022e-06
-4.23671e-08
9.7465e-06
-2.17504e-08
9.75244e-06
4.89325e-09
9.74849e-06
7.26485e-09
9.7484e-06
1.51505e-08
9.74106e-06
6.15817e-09
9.73647e-06
4.04563e-09
9.73471e-06
2.8279e-09
9.73399e-06
7.44128e-09
9.73284e-06
6.84444e-09
9.73225e-06
9.56615e-09
9.73114e-06
9.20881e-09
9.73002e-06
1.17532e-08
9.72844e-06
1.25962e-08
9.72689e-06
1.62417e-08
9.72525e-06
1.91842e-08
9.72416e-06
2.43106e-08
9.72378e-06
2.86387e-08
3.41886e-08
9.72482e-06
1.05166e-05
-3.61188e-08
1.05147e-05
-4.04568e-08
1.05233e-05
-3.03732e-08
1.05305e-05
-2.23948e-09
1.05282e-05
9.56045e-09
1.05273e-05
1.60221e-08
1.05201e-05
1.33915e-08
1.05141e-05
1.00484e-08
1.05118e-05
5.1075e-09
1.0511e-05
8.18873e-09
1.05099e-05
7.94105e-09
1.0509e-05
1.04875e-08
1.0508e-05
1.02009e-08
1.05069e-05
1.2876e-08
1.05055e-05
1.39626e-08
1.05042e-05
1.76002e-08
1.05029e-05
2.04241e-08
1.05023e-05
2.49643e-08
1.05022e-05
2.87524e-08
3.33534e-08
1.0503e-05
1.13571e-05
-3.10282e-08
1.13545e-05
-3.78439e-08
1.13592e-05
-3.50742e-08
1.13675e-05
-1.0599e-08
1.13695e-05
7.62719e-09
1.13679e-05
1.75364e-08
1.13625e-05
1.88087e-08
1.13555e-05
1.71074e-08
1.13513e-05
9.3042e-09
1.13497e-05
9.76621e-09
1.13489e-05
8.68878e-09
1.1348e-05
1.14269e-08
1.1347e-05
1.11714e-08
1.1346e-05
1.39363e-08
1.13448e-05
1.50992e-08
1.13437e-05
1.87156e-08
1.13429e-05
2.12409e-08
1.13426e-05
2.52949e-08
1.13428e-05
2.85776e-08
3.37983e-08
1.13423e-05
1.22646e-05
-2.6341e-08
1.22634e-05
-3.66032e-08
1.22608e-05
-3.24774e-08
1.22668e-05
-1.65563e-08
1.22746e-05
-1.8313e-10
1.22757e-05
1.63702e-08
1.22723e-05
2.22579e-08
1.22651e-05
2.4262e-08
1.22586e-05
1.58098e-08
1.22558e-05
1.26246e-08
1.22547e-05
9.77941e-09
1.22541e-05
1.20268e-08
1.22532e-05
1.20608e-08
1.22523e-05
1.48792e-08
1.22513e-05
1.60283e-08
1.22505e-05
1.95046e-08
1.22501e-05
2.16966e-08
1.22501e-05
2.52807e-08
1.22508e-05
2.79168e-08
3.10398e-08
1.22535e-05
1.32448e-05
-2.21784e-08
1.32422e-05
-3.40376e-08
1.32394e-05
-2.96485e-08
1.32386e-05
-1.57348e-08
1.32429e-05
-4.54234e-09
1.32461e-05
1.3132e-08
1.3248e-05
2.04231e-08
1.32449e-05
2.73228e-08
1.32394e-05
2.13645e-08
1.32351e-05
1.68983e-08
1.32332e-05
1.16822e-08
1.32325e-05
1.27663e-08
1.32318e-05
1.27232e-08
1.32311e-05
1.55907e-08
1.32304e-05
1.66949e-08
1.32299e-05
1.99678e-08
1.32299e-05
2.17821e-08
1.32302e-05
2.49085e-08
1.32311e-05
2.70212e-08
3.08136e-08
1.32314e-05
1.43031e-05
-1.85006e-08
1.42978e-05
-2.88059e-08
1.42959e-05
-2.7714e-08
1.42936e-05
-1.34723e-08
1.42932e-05
-4.11047e-09
1.42947e-05
1.15867e-08
1.42968e-05
1.83442e-08
1.42987e-05
2.54617e-08
1.42967e-05
2.33235e-08
1.42932e-05
2.03813e-08
1.42905e-05
1.44104e-08
1.42892e-05
1.40707e-08
1.42886e-05
1.33418e-08
1.42881e-05
1.60457e-08
1.42878e-05
1.70171e-08
1.42877e-05
2.00646e-08
1.4288e-05
2.15172e-08
1.42887e-05
2.41563e-08
1.42901e-05
2.5696e-08
2.76973e-08
1.42932e-05
1.54457e-05
-1.51995e-08
1.54399e-05
-2.30567e-08
1.54369e-05
-2.46671e-08
1.54349e-05
-1.15031e-08
1.54332e-05
-2.33825e-09
1.54334e-05
1.13123e-08
1.54343e-05
1.7488e-08
1.54358e-05
2.39076e-08
1.54365e-05
2.26861e-08
1.54348e-05
2.20194e-08
1.54325e-05
1.67387e-08
1.54308e-05
1.58033e-08
1.543e-05
1.41531e-08
1.54297e-05
1.63082e-08
1.54297e-05
1.70391e-08
1.543e-05
1.97533e-08
1.54306e-05
2.08742e-08
1.54318e-05
2.30369e-08
1.54333e-05
2.41187e-08
2.67342e-08
1.54343e-05
1.66795e-05
-1.21975e-08
1.66746e-05
-1.82442e-08
1.66699e-05
-1.99372e-08
1.66674e-05
-8.95575e-09
1.66655e-05
-4.96734e-10
1.6665e-05
1.18016e-08
1.66654e-05
1.71547e-08
1.66662e-05
2.30571e-08
1.66669e-05
2.20533e-08
1.66666e-05
2.22483e-08
1.66652e-05
1.82097e-08
1.66637e-05
1.72638e-08
1.66627e-05
1.51212e-08
1.66625e-05
1.6489e-08
1.66628e-05
1.6789e-08
1.66635e-05
1.90764e-08
1.66645e-05
1.98163e-08
1.6666e-05
2.15704e-08
1.66679e-05
2.21727e-08
2.3245e-08
1.66714e-05
1.80116e-05
-9.44611e-09
1.80074e-05
-1.39652e-08
1.8002e-05
-1.46049e-08
1.79986e-05
-5.55776e-09
1.79966e-05
1.51131e-09
1.79958e-05
1.25937e-08
1.79958e-05
1.7211e-08
1.79961e-05
2.27091e-08
1.79964e-05
2.17434e-08
1.79964e-05
2.22768e-08
1.79958e-05
1.88382e-08
1.79948e-05
1.82745e-08
1.7994e-05
1.58511e-08
1.79939e-05
1.66255e-08
1.79944e-05
1.62872e-08
1.79954e-05
1.80635e-08
1.79969e-05
1.83298e-08
1.79987e-05
1.97634e-08
1.80008e-05
2.01363e-08
2.09926e-08
1.8003e-05
1.94501e-05
-6.90658e-09
1.94452e-05
-9.01683e-09
1.94405e-05
-9.91144e-09
1.94367e-05
-1.75856e-09
1.94343e-05
3.9395e-09
1.94331e-05
1.37394e-08
1.94327e-05
1.76443e-08
1.94327e-05
2.26609e-08
1.94328e-05
2.17275e-08
1.94327e-05
2.23423e-08
1.94323e-05
1.92194e-08
1.94319e-05
1.86831e-08
1.94315e-05
1.62733e-08
1.94316e-05
1.64976e-08
1.94323e-05
1.56049e-08
1.94337e-05
1.67037e-08
1.94355e-05
1.65219e-08
1.94377e-05
1.75389e-08
1.94403e-05
1.75039e-08
1.7927e-08
1.94434e-05
2.10035e-05
-4.588e-09
2.09991e-05
-4.6683e-09
2.0994e-05
-4.81755e-09
2.09899e-05
2.35939e-09
2.09869e-05
6.99259e-09
2.09853e-05
1.53435e-08
2.09845e-05
1.84594e-08
2.09842e-05
2.28838e-08
2.0984e-05
2.19711e-08
2.09838e-05
2.24787e-08
2.09835e-05
1.95286e-08
2.09834e-05
1.8778e-08
2.09834e-05
1.6273e-08
2.09839e-05
1.60214e-08
2.09849e-05
1.46669e-08
2.09865e-05
1.50524e-08
2.09886e-05
1.43913e-08
2.09913e-05
1.48624e-08
2.09943e-05
1.45055e-08
1.46629e-08
2.09976e-05
2.26808e-05
-2.445e-09
2.26768e-05
-6.73568e-10
2.26717e-05
2.92152e-10
2.26671e-05
6.95768e-09
2.26635e-05
1.05345e-08
2.26614e-05
1.74581e-08
2.26602e-05
1.96994e-08
2.26596e-05
2.34288e-08
2.26591e-05
2.2476e-08
2.26589e-05
2.2757e-08
2.26585e-05
1.98514e-08
2.26586e-05
1.867e-08
2.2659e-05
1.596e-08
2.26598e-05
1.5176e-08
2.26611e-05
1.33971e-08
2.2663e-05
1.30788e-08
2.26654e-05
1.19836e-08
2.26685e-05
1.17967e-08
2.26719e-05
1.1159e-08
1.10715e-08
2.26755e-05
2.44919e-05
-3.59923e-10
2.44875e-05
3.65323e-09
2.44824e-05
5.41901e-09
2.44779e-05
1.14622e-08
2.4474e-05
1.43918e-08
2.44715e-05
1.99897e-08
2.44697e-05
2.15169e-08
2.44688e-05
2.42829e-08
2.4468e-05
2.33003e-08
2.44675e-05
2.32287e-08
2.44671e-05
2.03211e-08
2.44672e-05
1.85714e-08
2.44677e-05
1.54142e-08
2.4469e-05
1.38967e-08
2.44705e-05
1.1856e-08
2.44728e-05
1.07828e-08
2.44757e-05
9.14609e-09
2.4479e-05
8.45851e-09
2.44828e-05
7.40802e-09
7.14545e-09
2.44867e-05
2.64475e-05
1.69733e-09
2.64433e-05
7.8362e-09
2.64379e-05
1.08118e-08
2.64332e-05
1.61811e-08
2.6429e-05
1.86377e-08
2.6426e-05
2.29245e-08
2.64237e-05
2.38762e-08
2.64223e-05
2.56744e-08
2.64213e-05
2.43288e-08
2.64205e-05
2.39402e-08
2.64199e-05
2.09563e-08
2.64196e-05
1.88542e-08
2.64201e-05
1.49585e-08
2.64214e-05
1.25803e-08
2.64235e-05
9.73499e-09
2.64264e-05
7.94161e-09
2.64296e-05
5.89476e-09
2.64334e-05
4.67541e-09
2.64375e-05
3.33503e-09
2.61203e-09
2.6442e-05
2.85593e-05
3.74562e-09
2.85553e-05
1.18285e-08
2.85496e-05
1.64815e-08
2.85446e-05
2.12259e-08
2.854e-05
2.32086e-08
2.85365e-05
2.64219e-08
2.85335e-05
2.68585e-08
2.85315e-05
2.76863e-08
2.85298e-05
2.60057e-08
2.85291e-05
2.46416e-08
2.85286e-05
2.14456e-08
2.85282e-05
1.92604e-08
2.85279e-05
1.52607e-08
2.85285e-05
1.2029e-08
2.853e-05
8.23646e-09
2.85325e-05
5.36774e-09
2.85362e-05
2.28739e-09
2.85408e-05
-1.44546e-11
2.85457e-05
-1.48278e-09
-2.46315e-09
2.85507e-05
3.08395e-05
5.93255e-09
3.08349e-05
1.64463e-08
3.08295e-05
2.1875e-08
3.08242e-05
2.64768e-08
3.08194e-05
2.79975e-08
3.08155e-05
3.03679e-08
3.08121e-05
3.02908e-08
3.0809e-05
3.07669e-08
3.0806e-05
2.89672e-08
3.08043e-05
2.63474e-08
3.08033e-05
2.24974e-08
3.08035e-05
1.90148e-08
3.08043e-05
1.44314e-08
3.08059e-05
1.04537e-08
3.0808e-05
6.18379e-09
3.08105e-05
2.82881e-09
3.08131e-05
-3.42377e-10
3.0817e-05
-3.86769e-09
3.0822e-05
-6.50695e-09
-8.21853e-09
3.08278e-05
3.33016e-05
8.41118e-09
3.32971e-05
2.0973e-08
3.32911e-05
2.79125e-08
3.32857e-05
3.18372e-08
3.32801e-05
3.35481e-08
3.32761e-05
3.44515e-08
3.32723e-05
3.40233e-08
3.32696e-05
3.35123e-08
3.3266e-05
3.25323e-08
3.32623e-05
3.00658e-08
3.32587e-05
2.6124e-08
3.32558e-05
2.18743e-08
3.32537e-05
1.65084e-08
3.32532e-05
1.10207e-08
3.32546e-05
4.7691e-09
3.32585e-05
-1.03489e-09
3.32631e-05
-5.03388e-09
3.3268e-05
-8.76371e-09
3.32737e-05
-1.21174e-08
-1.44814e-08
3.32799e-05
3.59604e-05
1.11216e-08
3.59573e-05
2.40875e-08
3.59499e-05
3.53399e-08
3.59442e-05
3.75385e-08
3.5937e-05
4.06905e-08
3.59313e-05
4.01714e-08
3.59262e-05
3.91805e-08
3.59225e-05
3.71696e-08
3.59195e-05
3.55477e-08
3.59174e-05
3.2126e-08
3.59152e-05
2.83057e-08
3.59139e-05
2.31969e-08
3.59126e-05
1.78331e-08
3.59118e-05
1.18501e-08
3.59105e-05
6.05254e-09
3.59089e-05
5.17985e-10
3.59113e-05
-7.41182e-09
3.59164e-05
-1.38185e-08
3.59214e-05
-1.71997e-08
-2.08243e-08
3.59278e-05
3.88309e-05
1.47142e-08
3.88281e-05
2.68832e-08
3.88224e-05
4.10136e-08
3.88172e-05
4.27056e-08
3.88108e-05
4.71607e-08
3.8804e-05
4.69716e-08
3.87956e-05
4.75673e-08
3.87886e-05
4.40945e-08
3.87811e-05
4.31142e-08
3.8774e-05
3.91975e-08
3.87661e-05
3.61875e-08
3.87591e-05
3.0235e-08
3.87526e-05
2.42731e-08
3.87486e-05
1.59226e-08
3.87471e-05
7.52603e-09
3.87494e-05
-1.8019e-09
3.87504e-05
-8.43857e-09
3.87557e-05
-1.9064e-08
3.87663e-05
-2.7843e-08
-3.602e-08
3.87815e-05
4.19293e-05
2.04958e-08
4.19338e-05
2.23339e-08
4.19195e-05
5.53081e-08
4.19116e-05
5.05693e-08
4.1899e-05
5.98468e-08
4.18976e-05
4.83132e-08
4.18923e-05
5.28938e-08
4.18921e-05
4.42354e-08
4.18875e-05
4.77159e-08
4.1885e-05
4.17564e-08
4.18781e-05
4.3056e-08
4.18724e-05
3.59172e-08
4.18642e-05
3.25141e-08
4.18566e-05
2.34719e-08
4.18457e-05
1.84224e-08
4.18335e-05
1.04547e-08
4.18197e-05
5.38598e-09
4.18042e-05
-3.64e-09
4.17894e-05
-1.30014e-08
-2.83796e-08
4.17818e-05
4.52838e-05
1.98424e-08
4.52796e-05
2.65003e-08
4.52762e-05
5.87727e-08
4.52664e-05
6.03137e-08
4.52524e-05
7.38914e-08
4.52399e-05
6.08344e-08
4.52282e-05
6.45503e-08
4.52175e-05
5.49667e-08
4.52047e-05
6.05196e-08
4.51911e-05
5.53298e-08
4.51761e-05
5.80485e-08
4.51624e-05
4.96581e-08
4.51497e-05
4.52088e-08
4.51391e-05
3.40224e-08
4.51299e-05
2.76541e-08
4.51233e-05
1.70306e-08
4.51224e-05
6.27026e-09
4.51251e-05
-6.32029e-09
4.514e-05
-2.7892e-08
-6.55852e-08
4.51772e-05
4.88947e-05
2.37655e-08
4.88669e-05
5.42344e-08
4.8853e-05
7.27316e-08
4.88457e-05
6.75821e-08
4.88546e-05
6.50382e-08
4.88587e-05
5.67238e-08
4.88741e-05
4.91822e-08
4.88893e-05
3.97565e-08
4.89193e-05
3.0459e-08
4.89552e-05
1.94494e-08
4.90035e-05
9.76608e-09
4.90519e-05
1.25895e-09
4.91059e-05
-8.85087e-09
4.91573e-05
-1.72984e-08
4.92083e-05
-2.33776e-08
4.92532e-05
-2.78477e-08
4.92846e-05
-2.51957e-08
4.9305e-05
-2.67107e-08
4.93044e-05
-2.7253e-08
-2.36603e-08
4.92625e-05
5.28116e-05
1.49e-08
5.28292e-05
3.66444e-08
5.28431e-05
5.87801e-08
5.2832e-05
7.86602e-08
5.28081e-05
8.89418e-08
5.27754e-05
8.94985e-08
5.27382e-05
8.63594e-08
5.27023e-05
7.5604e-08
5.26702e-05
6.25667e-08
5.26433e-05
4.63616e-08
5.26214e-05
3.17246e-08
5.26048e-05
1.78309e-08
5.25892e-05
6.73255e-09
5.25746e-05
-2.72184e-09
5.25602e-05
-8.99239e-09
5.25545e-05
-2.21548e-08
5.25661e-05
-3.67899e-08
5.25919e-05
-5.24735e-08
5.26337e-05
-6.90602e-08
-8.82846e-08
5.26983e-05
5.70084e-05
2.5018e-08
5.69852e-05
5.98005e-08
5.69691e-05
7.49557e-08
5.69757e-05
7.20025e-08
5.69962e-05
6.849e-08
5.70265e-05
5.9148e-08
5.70664e-05
4.64409e-08
5.71089e-05
3.31461e-08
5.71493e-05
2.21798e-08
5.7182e-05
1.36866e-08
5.72068e-05
6.86269e-09
5.72242e-05
4.44981e-10
5.72412e-05
-1.02054e-08
5.72581e-05
-1.96947e-08
5.7276e-05
-2.68219e-08
5.72802e-05
-2.64337e-08
5.72725e-05
-2.90585e-08
5.72505e-05
-3.04812e-08
5.72119e-05
-3.04754e-08
-2.86675e-08
5.71523e-05
6.1582e-05
1.396e-08
6.16033e-05
3.84882e-08
6.16098e-05
6.84227e-08
6.15943e-05
8.75657e-08
6.1564e-05
9.87963e-08
6.15233e-05
9.97826e-08
6.14752e-05
9.45468e-08
6.14257e-05
8.26401e-08
6.13788e-05
6.91346e-08
6.13374e-05
5.50602e-08
6.13013e-05
4.29478e-08
6.12709e-05
3.08589e-08
6.12422e-05
1.8455e-08
6.12187e-05
3.89041e-09
6.12008e-05
-8.93989e-09
6.12017e-05
-2.73252e-08
6.1217e-05
-4.43559e-08
6.1248e-05
-6.15317e-08
6.1296e-05
-7.84669e-08
-9.67771e-08
6.13641e-05
6.64789e-05
2.18722e-08
6.64691e-05
4.83204e-08
6.64795e-05
5.79673e-08
6.65064e-05
6.06512e-08
6.65416e-05
6.35775e-08
6.65776e-05
6.38762e-08
6.6607e-05
6.50815e-08
6.66269e-05
6.27481e-08
6.66375e-05
5.85352e-08
6.66412e-05
5.1406e-08
6.66399e-05
4.41701e-08
6.66354e-05
3.54214e-08
6.66278e-05
2.60373e-08
6.66166e-05
1.51302e-08
6.66026e-05
4.98531e-09
6.6583e-05
-7.7402e-09
6.65564e-05
-1.76963e-08
6.65212e-05
-2.63065e-08
6.64753e-05
-3.26004e-08
-3.61885e-08
6.64147e-05
7.18025e-05
1.45841e-08
7.18298e-05
2.09617e-08
7.18365e-05
5.12879e-08
7.18401e-05
5.701e-08
7.18251e-05
7.86372e-08
7.18015e-05
8.74488e-08
7.17571e-05
1.09435e-07
7.17004e-05
1.19487e-07
7.16258e-05
1.33161e-07
7.1545e-05
1.32168e-07
7.146e-05
1.29148e-07
7.1381e-05
1.14478e-07
7.13081e-05
9.88798e-08
7.12525e-05
7.07684e-08
7.12077e-05
4.97553e-08
7.11729e-05
2.70824e-08
7.11476e-05
7.60636e-09
7.11437e-05
-2.24261e-08
7.11673e-05
-5.62207e-08
-9.5977e-08
7.12271e-05
7.75271e-05
7.75569e-05
7.75893e-05
7.76303e-05
7.76587e-05
7.7683e-05
7.76921e-05
7.76937e-05
7.76798e-05
7.76564e-05
7.76186e-05
7.75721e-05
7.75064e-05
7.74272e-05
7.73419e-05
7.72597e-05
7.71848e-05
7.7118e-05
7.70639e-05
7.70068e-05
3.81966e-06
2.78038e-08
3.78491e-06
3.47527e-08
3.74816e-06
3.67566e-08
3.70508e-06
4.30802e-08
3.6562e-06
4.88767e-08
3.60509e-06
5.11097e-08
3.55497e-06
5.01196e-08
3.50727e-06
4.7697e-08
3.46156e-06
4.57133e-08
3.4164e-06
4.51573e-08
3.37058e-06
4.58226e-08
3.32381e-06
4.6774e-08
3.27622e-06
4.75875e-08
3.22794e-06
4.82817e-08
3.17904e-06
4.88941e-08
3.12957e-06
4.94741e-08
3.07953e-06
5.00342e-08
3.02894e-06
5.05962e-08
2.9778e-06
5.1141e-08
2.92614e-06
5.16605e-08
2.874e-06
5.21331e-08
2.82144e-06
5.25648e-08
2.76848e-06
5.29537e-08
2.71517e-06
5.33187e-08
2.6615e-06
5.36638e-08
2.6075e-06
5.40062e-08
2.55315e-06
5.43446e-08
2.49846e-06
5.46903e-08
2.44342e-06
5.50361e-08
2.38803e-06
5.53897e-08
2.3323e-06
5.5737e-08
2.27621e-06
5.60862e-08
2.2198e-06
5.64167e-08
2.16305e-06
5.67433e-08
2.10602e-06
5.7035e-08
2.0487e-06
5.73159e-08
1.99116e-06
5.75409e-08
1.93341e-06
5.77458e-08
1.87555e-06
5.78684e-08
1.81759e-06
5.79533e-08
1.75967e-06
5.79214e-08
1.70185e-06
5.78236e-08
1.64428e-06
5.75685e-08
1.58707e-06
5.72045e-08
1.53044e-06
5.66322e-08
1.47456e-06
5.58808e-08
1.41972e-06
5.48437e-08
1.36618e-06
5.35392e-08
1.31426e-06
5.19186e-08
1.26434e-06
4.99202e-08
1.21681e-06
4.75329e-08
1.17209e-06
4.47173e-08
1.13054e-06
4.15533e-08
1.09251e-06
3.80252e-08
1.05837e-06
3.41452e-08
1.02822e-06
3.01437e-08
1.00214e-06
2.60799e-08
9.79945e-07
2.21976e-08
9.61395e-07
1.85497e-08
9.46117e-07
1.52779e-08
9.33691e-07
1.24256e-08
9.23617e-07
1.00741e-08
9.15532e-07
8.08489e-09
9.08941e-07
6.59145e-09
9.03523e-07
5.41811e-09
8.99026e-07
4.49652e-09
8.95098e-07
3.9281e-09
8.91495e-07
3.60292e-09
8.8814e-07
3.35518e-09
8.84834e-07
3.30632e-09
8.81539e-07
3.29512e-09
8.78185e-07
3.35349e-09
8.74732e-07
3.45335e-09
8.71077e-07
3.65515e-09
8.67269e-07
3.80816e-09
8.63261e-07
4.00789e-09
8.59079e-07
4.18165e-09
8.54684e-07
4.39549e-09
8.50161e-07
4.52266e-09
8.4548e-07
4.6813e-09
8.40716e-07
4.76359e-09
8.35859e-07
4.8567e-09
8.30994e-07
4.86492e-09
8.26097e-07
4.89761e-09
8.21234e-07
4.86318e-09
8.16356e-07
4.8776e-09
8.11518e-07
4.83781e-09
8.06647e-07
4.87117e-09
8.01792e-07
4.85496e-09
7.96887e-07
4.90484e-09
7.9201e-07
4.87729e-09
7.87121e-07
4.88936e-09
7.82323e-07
4.79797e-09
7.77577e-07
4.74532e-09
7.72969e-07
4.60878e-09
7.68419e-07
4.54938e-09
7.63969e-07
4.45062e-09
7.59502e-07
4.46701e-09
7.55076e-07
4.42602e-09
7.50583e-07
4.49258e-09
7.46145e-07
4.43792e-09
7.41703e-07
4.4422e-09
7.37387e-07
4.31564e-09
7.33153e-07
4.23403e-09
7.29072e-07
4.0808e-09
7.25019e-07
4.0531e-09
7.21057e-07
3.96242e-09
7.17013e-07
4.04421e-09
7.1301e-07
4.0022e-09
7.08976e-07
4.03457e-09
7.05054e-07
3.92183e-09
7.01208e-07
3.84622e-09
6.97549e-07
3.65905e-09
6.93914e-07
3.63474e-09
6.90387e-07
3.527e-09
6.86773e-07
3.61416e-09
6.83203e-07
3.56999e-09
6.79606e-07
3.59705e-09
6.76162e-07
3.44393e-09
6.72777e-07
3.38473e-09
6.69589e-07
3.18787e-09
6.6638e-07
3.20926e-09
6.63258e-07
3.12193e-09
6.60027e-07
3.23117e-09
6.56898e-07
3.12846e-09
6.53816e-07
3.08284e-09
6.50922e-07
2.89411e-09
6.48007e-07
2.91468e-09
6.45242e-07
2.76508e-09
6.42393e-07
2.8485e-09
6.39682e-07
2.71094e-09
6.36947e-07
2.73577e-09
6.34331e-07
2.61562e-09
6.31731e-07
2.60037e-09
6.29355e-07
2.37504e-09
6.26845e-07
2.51058e-09
6.24475e-07
2.36997e-09
6.22086e-07
2.38903e-09
6.19857e-07
2.22842e-09
6.17636e-07
2.22166e-09
6.1557e-07
2.06599e-09
6.13312e-07
2.2578e-09
6.11347e-07
1.96508e-09
6.09442e-07
1.90534e-09
6.07555e-07
1.88686e-09
6.0551e-07
2.04453e-09
6.03784e-07
1.72601e-09
6.02016e-07
1.76833e-09
6.0048e-07
1.53607e-09
5.98834e-07
1.64541e-09
5.97171e-07
1.66389e-09
5.95399e-07
1.77124e-09
5.94202e-07
1.19726e-09
5.92928e-07
1.27451e-09
5.91485e-07
1.44236e-09
5.89891e-07
1.59464e-09
5.88845e-07
1.04532e-09
5.87668e-07
1.17737e-09
5.86492e-07
1.1755e-09
5.85196e-07
1.29671e-09
5.84296e-07
8.99463e-10
5.83193e-07
1.10343e-09
5.8226e-07
9.3224e-10
5.81185e-07
1.0756e-09
5.80417e-07
7.67603e-10
5.79428e-07
9.88851e-10
5.78696e-07
7.32364e-10
5.77768e-07
9.28061e-10
5.77146e-07
6.21872e-10
5.76278e-07
8.67844e-10
5.7571e-07
5.68183e-10
5.74889e-07
8.20928e-10
5.74409e-07
4.8047e-10
5.73639e-07
7.69444e-10
5.73213e-07
4.25953e-10
5.72477e-07
7.36797e-10
5.72114e-07
3.62136e-10
5.71408e-07
7.06664e-10
5.71103e-07
3.04543e-10
5.7042e-07
6.83213e-10
5.7016e-07
2.59557e-10
5.69472e-07
6.8815e-10
5.69249e-07
2.23725e-10
5.68555e-07
6.93676e-10
5.68355e-07
2.00064e-10
5.6762e-07
7.34787e-10
5.6742e-07
2.00179e-10
5.66612e-07
8.07393e-10
5.66376e-07
2.36111e-10
5.65429e-07
9.473e-10
5.65088e-07
3.41006e-10
5.63894e-07
1.19367e-09
5.63319e-07
5.75182e-10
5.61675e-07
1.6446e-09
5.60563e-07
1.1116e-09
5.58078e-07
2.48522e-09
5.55537e-07
2.54094e-09
5.51473e-07
4.06349e-09
5.4472e-07
6.75282e-09
1.56214e-08
4.16133e-06
2.65992e-08
4.179e-06
1.70871e-08
4.1902e-06
2.55564e-08
4.19112e-06
4.2159e-08
4.18522e-06
5.47709e-08
4.17829e-06
5.80413e-08
4.17265e-06
5.57573e-08
4.16889e-06
5.14587e-08
4.16612e-06
4.84822e-08
4.16323e-06
4.80496e-08
4.15954e-06
4.95133e-08
4.15471e-06
5.16012e-08
4.14884e-06
5.34621e-08
4.14213e-06
5.49878e-08
4.13476e-06
5.62683e-08
4.12677e-06
5.74632e-08
4.11815e-06
5.8656e-08
4.10883e-06
5.99105e-08
4.09879e-06
6.11882e-08
4.08797e-06
6.24765e-08
4.07639e-06
6.37184e-08
4.06403e-06
6.49211e-08
4.05092e-06
6.60619e-08
4.03706e-06
6.71778e-08
4.02246e-06
6.82642e-08
4.0071e-06
6.93634e-08
3.99098e-06
7.04637e-08
3.97407e-06
7.16012e-08
3.95636e-06
7.27492e-08
3.93781e-06
7.39415e-08
3.91841e-06
7.51346e-08
3.89813e-06
7.63685e-08
3.87696e-06
7.75837e-08
3.85487e-06
7.88339e-08
3.83186e-06
8.00423e-08
3.8079e-06
8.12756e-08
3.78301e-06
8.24395e-08
3.75714e-06
8.36105e-08
3.73033e-06
8.468e-08
3.70256e-06
8.57222e-08
3.67386e-06
8.66216e-08
3.64424e-06
8.74398e-08
3.61375e-06
8.80651e-08
3.58242e-06
8.85303e-08
3.55032e-06
8.87322e-08
3.51755e-06
8.86521e-08
3.48419e-06
8.82037e-08
3.45039e-06
8.73444e-08
3.41628e-06
8.60203e-08
3.38207e-06
8.41385e-08
3.34795e-06
8.16526e-08
3.31409e-06
7.85732e-08
3.28083e-06
7.48141e-08
3.24832e-06
7.05322e-08
3.21684e-06
6.5628e-08
3.18652e-06
6.04631e-08
3.15754e-06
5.50576e-08
3.12998e-06
4.9759e-08
3.10386e-06
4.46688e-08
3.07912e-06
4.00201e-08
3.05569e-06
3.58531e-08
3.03341e-06
3.23551e-08
3.01212e-06
2.93761e-08
2.9917e-06
2.7008e-08
2.97199e-06
2.51327e-08
2.95281e-06
2.36762e-08
2.93416e-06
2.25803e-08
2.91584e-06
2.19187e-08
2.89778e-06
2.14161e-08
2.87994e-06
2.11476e-08
2.8623e-06
2.09352e-08
2.84476e-06
2.08911e-08
2.82736e-06
2.08523e-08
2.81002e-06
2.1001e-08
2.79273e-06
2.10986e-08
2.77546e-06
2.12776e-08
2.75824e-06
2.13955e-08
2.74102e-06
2.16196e-08
2.72383e-06
2.17067e-08
2.70666e-06
2.18529e-08
2.68956e-06
2.18619e-08
2.6725e-06
2.19179e-08
2.65555e-06
2.18146e-08
2.63868e-06
2.17679e-08
2.62196e-06
2.15865e-08
2.60533e-06
2.15101e-08
2.58885e-06
2.13163e-08
2.57245e-06
2.12735e-08
2.55618e-06
2.11243e-08
2.53998e-06
2.11055e-08
2.5239e-06
2.09521e-08
2.50793e-06
2.08606e-08
2.49214e-06
2.05902e-08
2.47649e-06
2.03902e-08
2.4611e-06
2.00019e-08
2.44586e-06
1.97933e-08
2.43085e-06
1.94583e-08
2.41595e-06
1.93631e-08
2.40121e-06
1.91705e-08
2.38655e-06
1.91496e-08
2.37205e-06
1.89422e-08
2.35765e-06
1.88401e-08
2.34351e-06
1.84535e-08
2.32954e-06
1.82051e-08
2.31586e-06
1.7759e-08
2.30236e-06
1.75582e-08
2.28904e-06
1.72761e-08
2.27581e-06
1.72774e-08
2.26274e-06
1.70706e-08
2.24973e-06
1.70419e-08
2.23698e-06
1.66806e-08
2.22441e-06
1.64141e-08
2.21214e-06
1.59255e-08
2.20005e-06
1.57263e-08
2.18819e-06
1.53877e-08
2.17636e-06
1.54449e-08
2.16469e-06
1.52342e-08
2.15311e-06
1.51763e-08
2.14179e-06
1.47643e-08
2.13067e-06
1.45065e-08
2.11988e-06
1.39786e-08
2.10918e-06
1.39137e-08
2.09865e-06
1.36439e-08
2.08817e-06
1.37129e-08
2.07791e-06
1.33904e-08
2.06778e-06
1.32156e-08
2.05796e-06
1.27173e-08
2.04825e-06
1.26204e-08
2.03881e-06
1.22069e-08
2.02941e-06
1.22468e-08
2.02023e-06
1.1891e-08
2.01113e-06
1.18351e-08
2.00231e-06
1.1431e-08
1.99362e-06
1.12953e-08
1.98522e-06
1.07751e-08
1.97684e-06
1.08853e-08
1.96873e-06
1.04809e-08
1.96069e-06
1.0432e-08
1.95293e-06
9.99179e-09
1.94527e-06
9.88062e-09
1.9379e-06
9.43062e-09
1.93055e-06
9.61472e-09
1.92355e-06
8.96466e-09
1.91662e-06
8.82983e-09
1.9099e-06
8.6095e-09
1.90322e-06
8.72416e-09
1.89698e-06
7.96768e-09
1.89079e-06
7.95933e-09
1.88489e-06
7.43166e-09
1.87895e-06
7.58914e-09
1.87324e-06
7.36924e-09
1.86763e-06
7.38438e-09
1.86261e-06
6.22104e-09
1.85751e-06
6.37461e-09
1.85251e-06
6.43786e-09
1.84752e-06
6.58847e-09
1.84311e-06
5.44761e-09
1.83861e-06
5.67967e-09
1.83436e-06
5.43219e-09
1.83006e-06
5.5912e-09
1.82627e-06
4.69006e-09
1.82232e-06
5.05466e-09
1.81875e-06
4.49946e-09
1.81506e-06
4.76433e-09
1.81185e-06
3.98454e-09
1.80842e-06
4.41657e-09
1.80546e-06
3.6911e-09
1.80229e-06
4.10193e-09
1.79962e-06
3.28675e-09
1.79667e-06
3.81748e-09
1.79426e-06
2.98168e-09
1.79152e-06
3.55595e-09
1.78937e-06
2.62882e-09
1.78684e-06
3.3093e-09
1.78491e-06
2.34637e-09
1.78255e-06
3.10616e-09
1.78085e-06
2.05484e-09
1.77864e-06
2.91809e-09
1.77716e-06
1.7808e-09
1.77508e-06
2.76451e-09
1.77379e-06
1.55081e-09
1.7718e-06
2.68149e-09
1.77068e-06
1.34436e-09
1.76875e-06
2.6191e-09
1.76778e-06
1.17509e-09
1.76587e-06
2.64438e-09
1.76501e-06
1.06294e-09
1.76305e-06
2.76003e-09
1.76225e-06
1.04271e-09
1.76015e-06
3.0483e-09
1.7593e-06
1.18823e-09
1.75689e-06
3.60557e-09
1.75582e-06
1.6399e-09
1.7528e-06
4.6664e-09
1.75116e-06
2.7551e-09
1.74688e-06
6.76504e-09
1.74387e-06
5.54627e-09
1.73636e-06
1.15711e-08
1.73003e-06
1.30832e-08
3.48417e-08
4.49489e-06
1.03667e-08
4.51108e-06
8.95115e-10
4.52123e-06
1.5407e-08
4.51814e-06
4.5248e-08
4.51532e-06
5.75963e-08
4.51421e-06
5.91459e-08
4.51512e-06
5.48472e-08
4.51667e-06
4.99149e-08
4.51779e-06
4.73533e-08
4.51871e-06
4.71357e-08
4.51972e-06
4.85049e-08
4.52072e-06
5.05969e-08
4.52152e-06
5.2668e-08
4.52205e-06
5.44495e-08
4.5224e-06
5.59181e-08
4.52262e-06
5.72471e-08
4.52273e-06
5.85438e-08
4.52272e-06
5.99185e-08
4.52257e-06
6.13379e-08
4.52225e-06
6.28004e-08
4.52174e-06
6.42297e-08
4.52103e-06
6.563e-08
4.52013e-06
6.6963e-08
4.51904e-06
6.82707e-08
4.51776e-06
6.95437e-08
4.51628e-06
7.0838e-08
4.51461e-06
7.21386e-08