/*--------------------------------*- C++ -*----------------------------------*\
| =========                 |                                                 |
| \\      /  F ield         | OpenFOAM: The Open Source CFD Toolbox           |
|  \\    /   O peration     | Version:  v2012                                 |
|   \\  /    A nd           | Website:  www.openfoam.com                      |
|    \\/     M anipulation  |                                                 |
\*---------------------------------------------------------------------------*/
FoamFile
{
    version     2.0;
    format      ascii;
    class       volVectorField;
    location    "1";
    object      U;
}
// * * * * * * * * * * * * * * * * * * * * * * * * * * * * * * * * * * * * * //

dimensions      [0 1 -1 0 0 0 0];


internalField   nonuniform List<vector> 
8800
(
(0.964812 -0.00134601 0)
(1.03449 0.00116554 0)
(0.968393 -0.00109966 0)
(1.03155 0.000982935 0)
(0.972556 -0.000924785 0)
(1.02894 0.000823783 0)
(0.976446 -0.000763796 0)
(1.02653 0.000692419 0)
(0.980013 -0.000644591 0)
(1.02427 0.000572545 0)
(0.983272 -0.000558566 0)
(1.0222 0.000514421 0)
(0.986258 -0.0004086 0)
(1.02039 0.00039403 0)
(0.989132 -0.000279604 0)
(1.01904 0.000275916 0)
(0.992063 -0.000153651 0)
(1.01831 0.000201928 0)
(0.99535 0.000316299 0)
(1.01933 0.000845832 0)
(0.986857 -0.00125443 0)
(1.01129 0.000921942 0)
(0.990148 -0.000885284 0)
(1.00912 0.000709059 0)
(0.993475 -0.000651743 0)
(1.00754 0.000469942 0)
(0.996157 -0.000438094 0)
(1.00636 0.00030815 0)
(0.998285 -0.000306263 0)
(1.00551 0.000220399 0)
(0.999993 -0.000226731 0)
(1.00492 0.000222096 0)
(1.00139 -9.89121e-05 0)
(1.00466 0.000104459 0)
(1.00268 -1.27842e-05 0)
(1.00486 2.07881e-05 0)
(1.00407 0.000210045 0)
(1.00567 0.000374366 0)
(1.00608 0.00102099 0)
(1.00835 0.000879482 0)
(0.997526 -0.00121146 0)
(1.00126 0.000825992 0)
(0.998029 -0.00081417 0)
(1.00075 0.000645689 0)
(0.999048 -0.000632351 0)
(1.00074 0.000425918 0)
(0.999902 -0.000497263 0)
(1.00094 0.000370304 0)
(1.00059 -0.000506865 0)
(1.00124 0.000494122 0)
(1.0012 -0.000510643 0)
(1.00158 0.000617316 0)
(1.00175 -0.000493102 0)
(1.00204 0.00055687 0)
(1.00242 -0.000517523 0)
(1.00281 0.000516897 0)
(1.00345 -0.000386628 0)
(1.00408 0.00168779 0)
(1.00504 0.00187542 0)
(1.0068 0.00498154 0)
(0.999873 -0.00117441 0)
(0.999334 0.000730978 0)
(0.999382 -0.000695414 0)
(0.999308 0.000538154 0)
(0.999715 -0.000496502 0)
(0.999648 0.000255159 0)
(1.00014 -0.000297932 0)
(1.00008 0.000114026 0)
(1.00057 -0.000222574 0)
(1.00052 0.000113279 0)
(1.001 -0.000113816 0)
(1.00095 0.000154295 0)
(1.00142 -4.32882e-05 0)
(1.00145 0.000154234 0)
(1.00202 -5.67192e-06 0)
(1.00225 0.000127162 0)
(1.00317 -8.65065e-06 0)
(1.0039 0.00016574 0)
(1.00532 0.000225076 0)
(1.00621 0.00108023 0)
(1.00021 -0.000988215 0)
(0.999103 0.000456107 0)
(0.999567 -0.000426267 0)
(0.999136 0.000266668 0)
(0.999801 -0.00023147 0)
(0.999514 -4.58487e-05 0)
(1.00017 -1.35525e-05 0)
(0.999972 -0.000227693 0)
(1.00057 0.000141739 0)
(1.00043 -0.000301673 0)
(1.00097 0.000329498 0)
(1.00085 -0.000337258 0)
(1.00138 0.000431625 0)
(1.00136 -0.0002891 0)
(1.00197 0.000507088 0)
(1.00214 -0.000341459 0)
(1.00295 0.000406383 0)
(1.00344 -0.00112609 0)
(1.00467 -0.000564554 0)
(1.00663 -0.00167072 0)
(1.00026 -0.00109268 0)
(0.999071 0.000540043 0)
(0.999628 -0.000498971 0)
(0.999094 0.00039551 0)
(0.999852 -0.000381842 0)
(0.999475 0.000162436 0)
(1.00022 -0.000328763 0)
(0.999934 0.000126632 0)
(1.00062 -0.000292338 0)
(1.0004 0.000218235 0)
(1.00102 -0.000185583 0)
(1.00083 0.000285916 0)
(1.00142 -0.000115027 0)
(1.00133 0.000348406 0)
(1.00199 -0.000106195 0)
(1.0021 0.000293045 0)
(1.00297 -0.000215443 0)
(1.00359 0.000293249 0)
(1.0052 0.000432821 0)
(1.00753 0.00249518 0)
(1.00027 -0.00078676 0)
(0.999104 0.000116984 0)
(0.99964 -6.3439e-05 0)
(0.999112 -3.08804e-05 0)
(0.999862 5.44527e-05 0)
(0.999489 -0.000190292 0)
(1.00024 2.28978e-05 0)
(0.999951 -0.000256221 0)
(1.00065 5.23897e-05 0)
(1.00042 -0.000135469 0)
(1.00104 0.000166172 0)
(1.00085 -4.69368e-05 0)
(1.00144 0.00023976 0)
(1.00135 4.34632e-05 0)
(1.00201 0.000215593 0)
(1.00212 7.52376e-05 0)
(1.003 0.00018735 0)
(1.00359 0.000212668 0)
(1.00528 0.000350561 0)
(1.00775 0.00109127 0)
(1.00026 -0.000919541 0)
(0.999159 0.000210596 0)
(0.999649 -0.000287305 0)
(0.999146 0.00026164 0)
(0.999872 -0.000301574 0)
(0.999517 0.000239046 0)
(1.00024 -0.000301927 0)
(0.999987 3.77762e-05 0)
(1.00067 -0.000161088 0)
(1.00047 0.000148665 0)
(1.00105 -8.16186e-05 0)
(1.0009 0.000208107 0)
(1.00145 4.21402e-05 0)
(1.00139 0.000258818 0)
(1.00201 8.90341e-05 0)
(1.00216 0.000253017 0)
(1.00302 0.000174395 0)
(1.0037 0.000439236 0)
(1.00548 0.000755574 0)
(1.00816 0.0016751 0)
(1.00025 -0.000660138 0)
(0.99921 -0.000127982 0)
(0.999674 -5.39416e-05 0)
(0.999173 4.27571e-05 0)
(0.999891 -2.14455e-05 0)
(0.999551 2.25382e-05 0)
(1.00024 -0.000182542 0)
(1.00003 -8.57305e-05 0)
(1.00068 -2.47477e-05 0)
(1.0005 3.01694e-05 0)
(1.00107 5.80889e-05 0)
(1.00094 0.000156049 0)
(1.00147 0.000129055 0)
(1.00143 0.000223995 0)
(1.00203 0.000168718 0)
(1.00221 0.000294021 0)
(1.00307 0.000320457 0)
(1.00383 0.000630388 0)
(1.00569 0.000997365 0)
(1.00854 0.00180609 0)
(1.00025 -0.000707 0)
(0.999276 -0.000130182 0)
(0.999704 -9.50834e-05 0)
(0.999221 6.35786e-05 0)
(0.999909 0.000123891 0)
(0.999569 -8.64367e-05 0)
(1.00027 -0.000132236 0)
(1.00008 5.04646e-05 0)
(1.00072 -9.72622e-05 0)
(1.00056 8.39252e-05 0)
(1.00111 8.40555e-05 0)
(1.00098 0.000214139 0)
(1.0015 0.000155197 0)
(1.00147 0.000247926 0)
(1.00206 0.000226708 0)
(1.00227 0.000356725 0)
(1.00315 0.000448749 0)
(1.00397 0.000757511 0)
(1.00591 0.00115053 0)
(1.00887 0.00183494 0)
(1.00024 -0.000552322 0)
(0.999331 -0.000311529 0)
(0.99975 -0.000123259 0)
(0.999266 9.26941e-05 0)
(0.99993 7.08908e-05 0)
(0.999595 -3.4381e-05 0)
(1.00032 -2.67402e-05 0)
(1.00011 4.26126e-05 0)
(1.00075 -5.10673e-05 0)
(1.0006 8.378e-05 0)
(1.00115 9.77923e-05 0)
(1.00103 0.000208089 0)
(1.00154 0.000171964 0)
(1.00152 0.000263818 0)
(1.00211 0.00027259 0)
(1.00234 0.000416451 0)
(1.00325 0.000547591 0)
(1.00413 0.000859458 0)
(1.00613 0.00124297 0)
(1.00917 0.00183542 0)
(1.00024 -0.000526817 0)
(0.99939 -0.000383289 0)
(0.999815 -0.000188807 0)
(0.999315 0.000187029 0)
(0.999963 5.88152e-06 0)
(0.999632 0.000219167 0)
(1.00035 -4.33512e-05 0)
(1.00015 -3.46191e-05 0)
(1.0008 -8.29176e-06 0)
(1.00066 0.000130465 0)
(1.0012 0.000125279 0)
(1.00107 0.000223191 0)
(1.00158 0.000205084 0)
(1.00157 0.00030087 0)
(1.00217 0.000330284 0)
(1.00243 0.000489072 0)
(1.00337 0.000637734 0)
(1.0043 0.000950288 0)
(1.00636 0.00130436 0)
(1.00946 0.00182996 0)
(1.00024 -0.000421384 0)
(0.999448 -0.000492947 0)
(0.999895 -0.00020686 0)
(0.999369 0.000109417 0)
(1.00002 7.53517e-05 0)
(0.999668 0.000264889 0)
(1.00036 2.12222e-05 0)
(1.0002 1.10405e-05 0)
(1.00086 4.16605e-05 0)
(1.00071 0.00016537 0)
(1.00125 0.000156277 0)
(1.00112 0.000241521 0)
(1.00164 0.000239906 0)
(1.00163 0.00033549 0)
(1.00225 0.000384508 0)
(1.00252 0.000548074 0)
(1.00349 0.000709426 0)
(1.00447 0.00100931 0)
(1.00658 0.00133694 0)
(1.00974 0.00179685 0)
(1.00024 -0.000391826 0)
(0.999505 -0.000454756 0)
(0.999975 -0.000326374 0)
(0.99944 1.83725e-05 0)
(1.00008 0.000145893 0)
(0.999711 0.000218342 0)
(1.0004 0.000167969 0)
(1.00024 0.000132453 0)
(1.00091 7.73358e-05 0)
(1.00077 0.000162347 0)
(1.00131 0.000176178 0)
(1.00118 0.000256185 0)
(1.0017 0.000271876 0)
(1.0017 0.000367139 0)
(1.00233 0.000434059 0)
(1.00263 0.000597977 0)
(1.00363 0.000767355 0)
(1.00464 0.00104853 0)
(1.0068 0.00135143 0)
(1.01 0.00174979 0)
(1.00024 -0.000347496 0)
(0.999546 -0.000398375 0)
(1.00004 -0.000411888 0)
(0.999522 -9.18568e-05 0)
(1.00014 0.000141888 0)
(0.99976 0.000273284 0)
(1.00044 0.000297477 0)
(1.00027 0.000260668 0)
(1.00095 0.000129067 0)
(1.00082 0.000172461 0)
(1.00136 0.00018154 0)
(1.00124 0.000276175 0)
(1.00176 0.000295904 0)
(1.00177 0.000404757 0)
(1.00242 0.000473945 0)
(1.00273 0.00064689 0)
(1.00377 0.000807175 0)
(1.00481 0.00107776 0)
(1.00701 0.00134507 0)
(1.01024 0.0017022 0)
(1.00024 -0.00028142 0)
(0.999582 -0.000411904 0)
(1.0001 -0.000391152 0)
(0.999605 -0.000203388 0)
(1.00022 4.60382e-05 0)
(0.999822 0.000261808 0)
(1.00048 0.000361259 0)
(1.00029 0.000401375 0)
(1.00098 0.00026306 0)
(1.00086 0.000234245 0)
(1.00142 0.000205927 0)
(1.0013 0.000289 0)
(1.00182 0.00031767 0)
(1.00184 0.000432252 0)
(1.00251 0.000508892 0)
(1.00285 0.000680991 0)
(1.00391 0.000834898 0)
(1.00498 0.0010862 0)
(1.00721 0.00132371 0)
(1.01048 0.00163973 0)
(1.00024 -0.000238029 0)
(0.999618 -0.000393013 0)
(1.00016 -0.000370637 0)
(0.999677 -0.000205746 0)
(1.0003 -5.54743e-05 0)
(0.999904 0.000209664 0)
(1.00055 0.000345005 0)
(1.00033 0.000482127 0)
(1.001 0.000400672 0)
(1.00089 0.000340839 0)
(1.00146 0.000256627 0)
(1.00135 0.000309839 0)
(1.00189 0.00033568 0)
(1.00192 0.000453274 0)
(1.0026 0.000534092 0)
(1.00296 0.000703192 0)
(1.00405 0.000847674 0)
(1.00515 0.00107823 0)
(1.00741 0.00128716 0)
(1.0107 0.00156488 0)
(1.00025 -0.000202787 0)
(0.999649 -0.000341713 0)
(1.00022 -0.0003458 0)
(0.999743 -0.00018627 0)
(1.00038 -6.78897e-05 0)
(0.999987 0.000181134 0)
(1.00063 0.00031184 0)
(1.00039 0.000470281 0)
(1.00103 0.000450656 0)
(1.00091 0.000422421 0)
(1.00149 0.000319435 0)
(1.00141 0.000346641 0)
(1.00196 0.000356029 0)
(1.00201 0.000469791 0)
(1.0027 0.000546984 0)
(1.00308 0.000711954 0)
(1.00418 0.000843026 0)
(1.00531 0.00105397 0)
(1.00759 0.00123365 0)
(1.01091 0.00147747 0)
(1.00025 -0.000169957 0)
(0.999676 -0.00027704 0)
(1.00027 -0.00030971 0)
(0.999807 -0.000167526 0)
(1.00046 -4.42308e-05 0)
(1.00006 0.000172488 0)
(1.0007 0.000300615 0)
(1.00044 0.000439555 0)
(1.00106 0.00044613 0)
(1.00093 0.000457298 0)
(1.00152 0.000377416 0)
(1.00145 0.000392514 0)
(1.00202 0.000386701 0)
(1.00208 0.000486053 0)
(1.0028 0.000554674 0)
(1.00319 0.000707779 0)
(1.00432 0.000825292 0)
(1.00546 0.00101354 0)
(1.00776 0.00116664 0)
(1.0111 0.00137642 0)
(1.00025 -0.000139903 0)
(0.999697 -0.000218476 0)
(1.00031 -0.000262571 0)
(0.999866 -0.000134442 0)
(1.00053 -2.1242e-05 0)
(1.00014 0.000179121 0)
(1.00077 0.000289508 0)
(1.0005 0.000424369 0)
(1.0011 0.000433685 0)
(1.00095 0.000470401 0)
(1.00154 0.000411378 0)
(1.00148 0.0004315 0)
(1.00207 0.000415108 0)
(1.00215 0.000500108 0)
(1.00288 0.000554177 0)
(1.00329 0.000691576 0)
(1.00444 0.00079161 0)
(1.0056 0.000957406 0)
(1.00792 0.00108402 0)
(1.01127 0.00126259 0)
(1.00025 -0.000106989 0)
(0.999715 -0.000175254 0)
(1.00035 -0.000204258 0)
(0.99992 -9.43722e-05 0)
(1.00059 7.58208e-06 0)
(1.0002 0.000187966 0)
(1.00083 0.000287693 0)
(1.00055 0.000413588 0)
(1.00114 0.000428138 0)
(1.00098 0.000472802 0)
(1.00156 0.000430356 0)
(1.00151 0.000455045 0)
(1.00211 0.000436531 0)
(1.00221 0.000506965 0)
(1.00296 0.000546973 0)
(1.00339 0.000664219 0)
(1.00455 0.000745893 0)
(1.00573 0.000887085 0)
(1.00806 0.000989319 0)
(1.01142 0.00113887 0)
(1.00025 -8.21708e-05 0)
(0.99973 -0.000124371 0)
(1.00038 -0.000145405 0)
(0.999967 -4.57966e-05 0)
(1.00065 3.76931e-05 0)
(1.00026 0.000202582 0)
(1.00088 0.000288592 0)
(1.00059 0.000408561 0)
(1.00117 0.000424272 0)
(1.001 0.000474887 0)
(1.00158 0.000440489 0)
(1.00153 0.000468364 0)
(1.00215 0.000446427 0)
(1.00226 0.000504166 0)
(1.00303 0.000527683 0)
(1.00347 0.00062393 0)
(1.00465 0.000684144 0)
(1.00584 0.000800267 0)
(1.00818 0.00087743 0)
(1.01155 0.000999858 0)
(1.00025 -5.8313e-05 0)
(0.999743 -7.37732e-05 0)
(1.00041 -8.36467e-05 0)
(1.00001 4.63488e-06 0)
(1.0007 7.75636e-05 0)
(1.00032 0.000223081 0)
(1.00094 0.000299587 0)
(1.00063 0.000409106 0)
(1.0012 0.000427324 0)
(1.00102 0.000477294 0)
(1.0016 0.000449711 0)
(1.00155 0.000473589 0)
(1.00217 0.000449089 0)
(1.0023 0.000490234 0)
(1.00308 0.000498714 0)
(1.00354 0.000569347 0)
(1.00472 0.00060869 0)
(1.00592 0.000696177 0)
(1.00828 0.0007497 0)
(1.01166 0.000841368 0)
(1.00025 -3.50879e-05 0)
(0.999753 -2.87814e-05 0)
(1.00043 -2.58206e-05 0)
(1.00004 6.07054e-05 0)
(1.00074 0.000124846 0)
(1.00036 0.000253074 0)
(1.00098 0.000318514 0)
(1.00067 0.000417435 0)
(1.00123 0.000434533 0)
(1.00104 0.000482375 0)
(1.00161 0.000457871 0)
(1.00156 0.000475888 0)
(1.00219 0.000444843 0)
(1.00232 0.000467592 0)
(1.00311 0.000457825 0)
(1.00358 0.000501399 0)
(1.00478 0.000517013 0)
(1.00599 0.000575436 0)
(1.00835 0.000604719 0)
(1.01173 0.000666965 0)
(1.00025 -1.34332e-05 0)
(0.99976 1.67464e-05 0)
(1.00045 3.45482e-05 0)
(1.00007 0.000120715 0)
(1.00078 0.000178004 0)
(1.0004 0.000290122 0)
(1.00101 0.00034565 0)
(1.00069 0.00043251 0)
(1.00125 0.000447345 0)
(1.00105 0.000488925 0)
(1.00161 0.000466122 0)
(1.00155 0.000475921 0)
(1.00218 0.000437841 0)
(1.00232 0.00043846 0)
(1.00312 0.000406955 0)
(1.0036 0.000417816 0)
(1.0048 0.000407321 0)
(1.00602 0.000435295 0)
(1.00839 0.000443132 0)
(1.01178 0.00048068 0)
(1.00025 6.33013e-06 0)
(0.999765 6.35051e-05 0)
(1.00046 9.84882e-05 0)
(1.00008 0.000181983 0)
(1.0008 0.00023563 0)
(1.00042 0.000332784 0)
(1.00104 0.00038236 0)
(1.00071 0.000456585 0)
(1.00126 0.000469311 0)
(1.00104 0.000500248 0)
(1.0016 0.000475773 0)
(1.00154 0.000474986 0)
(1.00216 0.000431302 0)
(1.00229 0.000410959 0)
(1.00309 0.000353379 0)
(1.00358 0.000318109 0)
(1.00479 0.000257814 0)
(1.00602 0.000225497 0)
(1.0084 0.000180437 0)
(1.0118 0.000166455 0)
(1.00025 2.8013e-05 0)
(0.999768 0.000106816 0)
(1.00047 0.000162663 0)
(1.00009 0.000242581 0)
(1.00082 0.00029589 0)
(1.00044 0.000378431 0)
(1.00105 0.000426145 0)
(1.00071 0.000489674 0)
(1.00125 0.00050326 0)
(1.00103 0.000520936 0)
(1.00158 0.000488374 0)
(1.0015 0.000467519 0)
(1.00212 0.00041536 0)
(1.00224 0.000387617 0)
(1.00302 0.000339549 0)
(1.00348 0.000312963 0)
(1.00469 0.000265057 0)
(1.00591 0.000231416 0)
(1.00829 0.000177668 0)
(1.01171 0.000140523 0)
(1.00025 4.9135e-05 0)
(0.999768 0.000156592 0)
(1.00047 0.000228691 0)
(1.00009 0.000308784 0)
(1.00082 0.000358612 0)
(1.00044 0.000429286 0)
(1.00105 0.000471814 0)
(1.00071 0.000530841 0)
(1.00123 0.000549229 0)
(1.00099 0.000567749 0)
(1.00153 0.000529451 0)
(1.00144 0.000476159 0)
(1.00206 0.000367429 0)
(1.00219 0.000254037 0)
(1.00299 0.000109042 0)
(1.00346 -2.02754e-05 0)
(1.00467 -0.000157871 0)
(1.00588 -0.000266787 0)
(1.00824 -0.000376541 0)
(1.01164 -0.000462327 0)
(1.00025 6.87742e-05 0)
(0.999764 0.000210719 0)
(1.00046 0.000304093 0)
(1.00008 0.000388423 0)
(1.0008 0.000435238 0)
(1.00043 0.00049208 0)
(1.00104 0.00051996 0)
(1.00069 0.000560747 0)
(1.00121 0.000571738 0)
(1.00095 0.000596093 0)
(1.00144 0.000590036 0)
(1.0013 0.000589134 0)
(1.00186 0.000548896 0)
(1.00192 0.000501395 0)
(1.00267 0.000410237 0)
(1.00311 0.000308288 0)
(1.00431 0.00016896 0)
(1.00555 2.85098e-05 0)
(1.00794 -0.000124074 0)
(1.01137 -0.000257657 0)
(1.00025 9.54344e-05 0)
(0.999758 0.000237394 0)
(1.00044 0.000372609 0)
(1.00005 0.000462336 0)
(1.00077 0.000546717 0)
(1.00039 0.000607538 0)
(1.00099 0.000660195 0)
(1.00064 0.000681107 0)
(1.00116 0.000666431 0)
(1.00091 0.000607181 0)
(1.00143 0.0005049 0)
(1.00132 0.00036541 0)
(1.00189 0.000190923 0)
(1.00197 -8.92957e-06 0)
(1.00269 -0.000231571 0)
(1.00309 -0.00046495 0)
(1.00422 -0.000706119 0)
(1.00538 -0.000941728 0)
(1.00771 -0.00116824 0)
(1.01111 -0.00136098 0)
(1.00025 0.000140978 0)
(0.999751 0.000283525 0)
(1.00043 0.000434827 0)
(1.00004 0.000463409 0)
(1.00075 0.000550215 0)
(1.00037 0.000582038 0)
(1.00096 0.000683366 0)
(1.00057 0.000757149 0)
(1.00103 0.000877344 0)
(1.00069 0.000958076 0)
(1.00111 0.00104336 0)
(1.00088 0.00106325 0)
(1.00134 0.00105213 0)
(1.00131 0.000958683 0)
(1.00198 0.000816216 0)
(1.00235 0.000589109 0)
(1.0035 0.000306497 0)
(1.00471 -5.95371e-05 0)
(1.00712 -0.000487495 0)
(1.01064 -0.00098839 0)
(1.00025 0.000137958 0)
(0.999715 0.00034495 0)
(1.00035 0.000620482 0)
(0.999942 0.00072696 0)
(1.00066 0.000842716 0)
(1.0003 0.000806017 0)
(1.00094 0.000787174 0)
(1.00062 0.000671949 0)
(1.00116 0.000595322 0)
(1.0009 0.000447837 0)
(1.00138 0.000326319 0)
(1.00118 0.000132253 0)
(1.00164 -5.28151e-05 0)
(1.00155 -0.000305726 0)
(1.00208 -0.000552243 0)
(1.00224 -0.000853044 0)
(1.00308 -0.00114262 0)
(1.0039 -0.00146291 0)
(1.00586 -0.00173927 0)
(1.00891 -0.00199392 0)
(1.00025 0.000254337 0)
(0.999775 7.5795e-05 0)
(1.00041 0.000591776 0)
(0.999963 0.000496449 0)
(1.00059 0.000918447 0)
(1.00013 0.000819363 0)
(1.00065 0.00121449 0)
(1.00021 0.00121771 0)
(1.00061 0.00166668 0)
(1.00022 0.0017665 0)
(1.00055 0.00218173 0)
(1.00022 0.00219411 0)
(1.00057 0.00236796 0)
(1.00043 0.00218419 0)
(1.00097 0.00218735 0)
(1.00123 0.00191813 0)
(1.00229 0.00173717 0)
(1.00347 0.00109416 0)
(1.00595 7.91654e-05 0)
(1.00973 -0.00206567 0)
(1.00025 0.000203627 0)
(0.99975 0.0006119 0)
(1.00042 0.000926814 0)
(1.00001 0.00102834 0)
(1.00072 0.000982808 0)
(1.0004 0.000793013 0)
(1.00111 0.000573659 0)
(1.00091 0.000356557 0)
(1.00155 0.000184506 0)
(1.00134 1.76229e-05 0)
(1.00174 -0.000145688 0)
(1.00134 -0.000332296 0)
(1.00154 -0.000525452 0)
(1.00125 -0.00072432 0)
(1.00159 -0.00091118 0)
(1.00142 -0.00108784 0)
(1.00145 -0.00124754 0)
(1.00045 -0.00139189 0)
(0.998762 -0.00152188 0)
(0.994753 -0.00166584 0)
(1.00025 0.00017919 0)
(0.999753 0.000408179 0)
(1.00024 0.000680646 0)
(0.999574 0.00087035 0)
(0.999992 0.00112068 0)
(0.99937 0.00130068 0)
(0.999824 0.00148067 0)
(0.999381 0.0015237 0)
(0.999785 0.00145319 0)
(0.999353 0.00120455 0)
(0.999622 0.000902032 0)
(0.999227 0.000574081 0)
(0.999523 0.000321322 0)
(0.999358 5.81503e-05 0)
(0.9999 -0.000229269 0)
(1.00019 -0.000636369 0)
(1.00135 -0.00113963 0)
(1.00271 -0.00175784 0)
(1.00548 -0.00239911 0)
(1.00959 -0.0030141 0)
(1.00025 0.000205449 0)
(0.999725 0.000541968 0)
(1.0004 0.000815306 0)
(1.00003 0.000949191 0)
(1.00078 0.00100236 0)
(1.00046 0.000936936 0)
(1.00109 0.000811361 0)
(1.00068 0.00061278 0)
(1.00101 0.000431152 0)
(1.00053 0.00025692 0)
(1.00078 0.000119431 0)
(1.00039 -2.92136e-05 0)
(1.0006 -0.00018067 0)
(1.00017 -0.000368432 0)
(1.00015 -0.000571218 0)
(0.999417 -0.000801345 0)
(0.99875 -0.00103566 0)
(0.997042 -0.00129119 0)
(0.994741 -0.00157501 0)
(0.990406 -0.0019277 0)
(1.00025 0.000184222 0)
(0.999698 0.000585078 0)
(1.00006 0.000908566 0)
(0.999228 0.00116934 0)
(0.999463 0.00130588 0)
(0.998658 0.00132359 0)
(0.998947 0.0011925 0)
(0.998418 0.00100169 0)
(0.998818 0.000789056 0)
(0.998413 0.000607454 0)
(0.998679 0.000403782 0)
(0.998229 0.000170832 0)
(0.998424 -0.000141202 0)
(0.998139 -0.000513612 0)
(0.99858 -0.000964074 0)
(0.998818 -0.00145316 0)
(0.99997 -0.00197397 0)
(1.00136 -0.0024654 0)
(1.00414 -0.00290324 0)
(1.0082 -0.00321964 0)
(1.00025 0.000175433 0)
(0.999729 0.000379976 0)
(1.00037 0.000638468 0)
(0.999922 0.000801903 0)
(1.00053 0.00103539 0)
(0.999991 0.00119623 0)
(1.00042 0.00137767 0)
(0.999897 0.00142184 0)
(1.00021 0.00140653 0)
(0.999682 0.00127967 0)
(0.999818 0.00118435 0)
(0.999191 0.00104995 0)
(0.999081 0.000916427 0)
(0.998271 0.000680658 0)
(0.997837 0.000383799 0)
(0.996687 -2.97562e-05 0)
(0.995671 -0.0005062 0)
(0.993714 -0.00109326 0)
(0.991298 -0.00174917 0)
(0.986999 -0.00251444 0)
(1.00024 0.000177452 0)
(0.999657 0.000562096 0)
(0.999986 0.000841402 0)
(0.999141 0.00100507 0)
(0.99937 0.00108595 0)
(0.998528 0.00116427 0)
(0.998696 0.00125803 0)
(0.997947 0.00136223 0)
(0.998119 0.00142748 0)
(0.997595 0.00143126 0)
(0.997825 0.00133664 0)
(0.997291 0.00113848 0)
(0.997266 0.000817332 0)
(0.996619 0.000382914 0)
(0.996618 -0.000167111 0)
(0.996381 -0.00080468 0)
(0.997038 -0.00150606 0)
(0.997917 -0.00221878 0)
(1.00023 -0.0028955 0)
(1.00391 -0.0034684 0)
(1.00025 0.000159685 0)
(0.999709 -8.45409e-05 0)
(1.00023 0.000258226 0)
(0.999656 0.000251973 0)
(1.00022 0.000812059 0)
(0.999746 0.00111271 0)
(1.00025 0.00189001 0)
(0.999723 0.00239939 0)
(0.999915 0.00321165 0)
(0.999143 0.0036531 0)
(0.998908 0.00418892 0)
(0.997798 0.00430545 0)
(0.997111 0.00446657 0)
(0.995634 0.00425736 0)
(0.994477 0.00403956 0)
(0.992594 0.00341001 0)
(0.990913 0.00263492 0)
(0.98844 0.00133241 0)
(0.985734 -0.000336788 0)
(0.981427 -0.00283187 0)
(1.0044 0.00202448 0)
(0.991977 0.00273683 0)
(0.977528 0.00314662 0)
(0.963059 0.00342726 0)
(0.949081 0.0035883 0)
(0.935623 0.00358423 0)
(0.922639 0.00343428 0)
(0.910077 0.00322643 0)
(0.897903 0.00304917 0)
(0.886033 0.00294721 0)
(0.87434 0.00290546 0)
(0.862654 0.00289117 0)
(0.85085 0.0028811 0)
(0.838827 0.0028659 0)
(0.826551 0.00284572 0)
(0.814005 0.00282497 0)
(0.801217 0.0028067 0)
(0.788208 0.00279167 0)
(0.775025 0.00277865 0)
(0.761688 0.00276538 0)
(0.748238 0.00275053 0)
(0.734676 0.00273267 0)
(0.721034 0.00271254 0)
(0.707296 0.00268967 0)
(0.693491 0.00266602 0)
(0.679589 0.00264081 0)
(0.665622 0.00261616 0)
(0.651549 0.00259053 0)
(0.637415 0.00256591 0)
(0.623161 0.00254037 0)
(0.60885 0.00251539 0)
(0.594411 0.00248943 0)
(0.579924 0.00246296 0)
(0.565307 0.00243586 0)
(0.550656 0.0024068 0)
(0.53588 0.00237767 0)
(0.52109 0.00234473 0)
(0.50619 0.00231225 0)
(0.491298 0.00227389 0)
(0.476329 0.00223582 0)
(0.461398 0.00218993 0)
(0.44644 0.00214348 0)
(0.431561 0.00208787 0)
(0.41673 0.0020299 0)
(0.40204 0.00196149 0)
(0.3875 0.00188645 0)
(0.373195 0.0018001 0)
(0.359185 0.0016999 0)
(0.345552 0.00158595 0)
(0.332374 0.00144758 0)
(0.319786 0.00129386 0)
(0.307827 0.0011148 0)
(0.296722 0.000920462 0)
(0.286387 0.000710256 0)
(0.277142 0.00049765 0)
(0.268806 0.000299234 0)
(0.261648 0.000117616 0)
(0.255413 -3.49006e-05 0)
(0.250256 -0.000160889 0)
(0.245885 -0.000259996 0)
(0.24241 -0.000331327 0)
(0.239472 -0.000377984 0)
(0.237206 -0.00041039 0)
(0.235283 -0.000420842 0)
(0.233776 -0.000420066 0)
(0.232457 -0.000410653 0)
(0.231446 -0.000387934 0)
(0.230391 -0.00036419 0)
(0.229578 -0.00034277 0)
(0.228648 -0.000313664 0)
(0.227865 -0.000286433 0)
(0.226934 -0.000261977 0)
(0.226143 -0.000237244 0)
(0.225142 -0.000211171 0)
(0.224259 -0.000190325 0)
(0.223172 -0.000170283 0)
(0.222203 -0.000150979 0)
(0.221004 -0.000132791 0)
(0.219945 -0.000118891 0)
(0.218666 -0.000104921 0)
(0.217543 -9.37043e-05 0)
(0.216202 -8.34219e-05 0)
(0.215049 -7.62734e-05 0)
(0.213686 -6.87932e-05 0)
(0.212533 -6.3264e-05 0)
(0.211168 -5.66188e-05 0)
(0.210026 -5.13259e-05 0)
(0.20866 -4.45348e-05 0)
(0.207522 -3.89147e-05 0)
(0.206142 -3.27896e-05 0)
(0.205003 -2.8832e-05 0)
(0.203616 -2.48274e-05 0)
(0.202497 -2.37225e-05 0)
(0.201132 -2.1359e-05 0)
(0.200064 -2.09987e-05 0)
(0.198742 -1.81672e-05 0)
(0.197726 -1.57056e-05 0)
(0.196427 -1.13522e-05 0)
(0.195432 -7.85092e-06 0)
(0.194124 -3.39189e-06 0)
(0.193134 -2.17814e-06 0)
(0.191821 -6.14515e-10 0)
(0.190864 -1.21375e-06 0)
(0.189585 -7.15173e-07 0)
(0.188694 -5.65092e-07 0)
(0.18746 2.04091e-06 0)
(0.186616 3.99689e-06 0)
(0.185386 8.28349e-06 0)
(0.184551 8.92218e-06 0)
(0.183304 1.03617e-05 0)
(0.182493 8.78232e-06 0)
(0.181272 8.35737e-06 0)
(0.180531 7.32791e-06 0)
(0.179357 9.83455e-06 0)
(0.178674 1.04921e-05 0)
(0.177503 1.36211e-05 0)
(0.176832 1.36385e-05 0)
(0.175644 1.37958e-05 0)
(0.175007 1.13986e-05 0)
(0.173848 1.18572e-05 0)
(0.173289 1.06594e-05 0)
(0.172167 1.30369e-05 0)
(0.171656 1.33587e-05 0)
(0.170519 1.52212e-05 0)
(0.170026 1.29635e-05 0)
(0.168889 1.25734e-05 0)
(0.168464 1.09864e-05 0)
(0.167358 1.30336e-05 0)
(0.166994 1.21805e-05 0)
(0.165888 1.36814e-05 0)
(0.165566 1.16877e-05 0)
(0.164456 1.23403e-05 0)
(0.164185 1.09946e-05 0)
(0.163082 1.19197e-05 0)
(0.162885 1.01226e-05 0)
(0.161792 1.23849e-05 0)
(0.161642 1.02671e-05 0)
(0.160534 1.06794e-05 0)
(0.160447 9.10943e-06 0)
(0.15935 1.03739e-05 0)
(0.159336 9.06361e-06 0)
(0.158219 1.10047e-05 0)
(0.158257 7.40302e-06 0)
(0.157157 7.82898e-06 0)
(0.157282 8.17182e-06 0)
(0.156142 1.03352e-05 0)
(0.156314 6.87098e-06 0)
(0.155181 7.4964e-06 0)
(0.15546 5.28484e-06 0)
(0.154321 7.78367e-06 0)
(0.154642 7.82999e-06 0)
(0.15343 8.42692e-06 0)
(0.153849 2.86797e-06 0)
(0.152698 5.21269e-06 0)
(0.153199 6.75059e-06 0)
(0.151934 7.78311e-06 0)
(0.152501 2.69923e-06 0)
(0.151273 5.07684e-06 0)
(0.151936 4.88477e-06 0)
(0.150625 6.07622e-06 0)
(0.151367 2.52771e-06 0)
(0.150049 5.02054e-06 0)
(0.150877 3.27609e-06 0)
(0.149498 4.88992e-06 0)
(0.150414 2.17047e-06 0)
(0.148999 4.54631e-06 0)
(0.15 2.20735e-06 0)
(0.148529 4.20872e-06 0)
(0.149621 1.59265e-06 0)
(0.148101 4.01269e-06 0)
(0.149279 1.46734e-06 0)
(0.147701 3.80392e-06 0)
(0.148969 1.02047e-06 0)
(0.147335 3.5928e-06 0)
(0.148692 8.705e-07 0)
(0.146993 3.51863e-06 0)
(0.148438 6.30497e-07 0)
(0.146676 3.4366e-06 0)
(0.148208 3.84745e-07 0)
(0.14638 3.37908e-06 0)
(0.147997 2.63218e-07 0)
(0.146099 3.54373e-06 0)
(0.147795 1.74401e-07 0)
(0.145826 3.70797e-06 0)
(0.147599 1.93002e-07 0)
(0.145553 4.1492e-06 0)
(0.147396 3.3364e-07 0)
(0.145266 4.81143e-06 0)
(0.147169 7.11169e-07 0)
(0.144944 5.99102e-06 0)
(0.146887 1.52259e-06 0)
(0.144546 8.0822e-06 0)
(0.1465 3.00032e-06 0)
(0.143999 1.19351e-05 0)
(0.145906 6.44259e-06 0)
(0.143132 1.88183e-05 0)
(0.144925 1.85096e-05 0)
(0.141412 2.27792e-05 0)
(0.143351 7.10985e-05 0)
(0.136873 0.00011944 0)
(1.01024 0.00168312 0)
(1.00918 0.00269564 0)
(1.0061 0.00387265 0)
(1.003 0.00506411 0)
(1.00035 0.00586284 0)
(0.998137 0.00612666 0)
(0.996427 0.00593123 0)
(0.995097 0.00552654 0)
(0.994176 0.00517303 0)
(0.993446 0.00499776 0)
(0.992857 0.00497356 0)
(0.992155 0.00502039 0)
(0.991338 0.00507602 0)
(0.990221 0.0051166 0)
(0.988885 0.00514054 0)
(0.987208 0.00515815 0)
(0.98532 0.00517621 0)
(0.983124 0.00519949 0)
(0.980771 0.00522542 0)
(0.978155 0.00525229 0)
(0.975426 0.00527559 0)
(0.972459 0.00529521 0)
(0.969403 0.00530936 0)
(0.96611 0.00532059 0)
(0.962733 0.00532853 0)
(0.959104 0.00533628 0)
(0.95539 0.00534291 0)
(0.951402 0.00535098 0)
(0.947325 0.00535855 0)
(0.942948 0.00536784 0)
(0.93848 0.00537601 0)
(0.933688 0.00538538 0)
(0.928807 0.00539251 0)
(0.923579 0.00540024 0)
(0.918263 0.00540459 0)
(0.912587 0.00540878 0)
(0.906822 0.00540841 0)
(0.900687 0.00540684 0)
(0.894465 0.0053995 0)
(0.887871 0.00538925 0)
(0.881195 0.00537173 0)
(0.874151 0.0053489 0)
(0.867039 0.00531701 0)
(0.859569 0.00527668 0)
(0.852061 0.00522484 0)
(0.844212 0.00515988 0)
(0.836383 0.00507944 0)
(0.828242 0.00497823 0)
(0.820211 0.00485336 0)
(0.811908 0.00469843 0)
(0.803842 0.00451118 0)
(0.79557 0.00429176 0)
(0.787681 0.00403643 0)
(0.779668 0.00375527 0)
(0.772179 0.00344742 0)
(0.764669 0.00313103 0)
(0.757774 0.00280855 0)
(0.750912 0.0024956 0)
(0.744694 0.00219784 0)
(0.738492 0.00192611 0)
(0.732924 0.00168152 0)
(0.7273 0.00147398 0)
(0.722266 0.00129451 0)
(0.717097 0.00114811 0)
(0.71247 0.00102863 0)
(0.707617 0.000932684 0)
(0.703302 0.000854798 0)
(0.698653 0.000796489 0)
(0.694522 0.000744705 0)
(0.690008 0.000706217 0)
(0.685992 0.000675095 0)
(0.681555 0.000653368 0)
(0.677624 0.00063469 0)
(0.673229 0.000625357 0)
(0.66934 0.000615713 0)
(0.664957 0.000610475 0)
(0.661108 0.000603155 0)
(0.656719 0.000600844 0)
(0.652894 0.000593685 0)
(0.648501 0.000589068 0)
(0.64471 0.000579903 0)
(0.640321 0.000572642 0)
(0.636576 0.000560385 0)
(0.632213 0.0005501 0)
(0.628533 0.000535884 0)
(0.624207 0.000525327 0)
(0.620602 0.000511407 0)
(0.616316 0.000502928 0)
(0.612781 0.000491034 0)
(0.608524 0.000484539 0)
(0.60506 0.00047321 0)
(0.600828 0.000464873 0)
(0.597454 0.00045094 0)
(0.593266 0.000438843 0)
(0.590001 0.000422388 0)
(0.585889 0.000410664 0)
(0.582734 0.000396152 0)
(0.578692 0.000389929 0)
(0.575636 0.000379628 0)
(0.57162 0.000376496 0)
(0.568664 0.000367013 0)
(0.564667 0.000360389 0)
(0.561817 0.00034708 0)
(0.557892 0.000336385 0)
(0.555165 0.000320922 0)
(0.551325 0.000313744 0)
(0.548737 0.000302858 0)
(0.544923 0.000301804 0)
(0.54245 0.00029489 0)
(0.538651 0.000292103 0)
(0.536273 0.000281012 0)
(0.532532 0.000272231 0)
(0.530302 0.00025747 0)
(0.526629 0.000251299 0)
(0.524557 0.000241728 0)
(0.520913 0.000242861 0)
(0.518945 0.000236646 0)
(0.515309 0.000234818 0)
(0.51346 0.000223365 0)
(0.509863 0.000215772 0)
(0.508191 0.000202843 0)
(0.504651 0.000201254 0)
(0.503118 0.000193642 0)
(0.499568 0.000196247 0)
(0.498169 0.000188792 0)
(0.494628 0.000183761 0)
(0.493377 0.000171953 0)
(0.489875 0.000169662 0)
(0.488797 0.00016007 0)
(0.485296 0.000162344 0)
(0.484373 0.000154142 0)
(0.480851 0.000152729 0)
(0.480082 0.000144516 0)
(0.476588 0.000141495 0)
(0.475997 0.000130021 0)
(0.472481 0.000134074 0)
(0.472079 0.000125886 0)
(0.468539 0.000125248 0)
(0.468306 0.000116682 0)
(0.464762 0.000114083 0)
(0.464715 0.000105214 0)
(0.461144 0.000111325 0)
(0.461324 9.89259e-05 0)
(0.457711 9.60883e-05 0)
(0.458063 9.22845e-05 0)
(0.45442 9.48882e-05 0)
(0.454999 8.16883e-05 0)
(0.451323 8.43487e-05 0)
(0.452145 7.5002e-05 0)
(0.448392 7.65884e-05 0)
(0.449384 7.36379e-05 0)
(0.445586 7.66298e-05 0)
(0.446873 5.66203e-05 0)
(0.443016 5.93271e-05 0)
(0.444499 6.21806e-05 0)
(0.440558 6.6178e-05 0)
(0.442293 4.71838e-05 0)
(0.438272 5.1607e-05 0)
(0.440246 4.91988e-05 0)
(0.436137 5.27207e-05 0)
(0.438357 3.90149e-05 0)
(0.434147 4.54643e-05 0)
(0.436617 3.82109e-05 0)
(0.432303 4.28662e-05 0)
(0.435017 3.19602e-05 0)
(0.43059 3.88958e-05 0)
(0.433552 2.94351e-05 0)
(0.429006 3.57719e-05 0)
(0.432215 2.51118e-05 0)
(0.427544 3.2827e-05 0)
(0.430997 2.24039e-05 0)
(0.426196 3.03778e-05 0)
(0.429894 1.89667e-05 0)
(0.424959 2.80287e-05 0)
(0.428894 1.65647e-05 0)
(0.423822 2.61921e-05 0)
(0.427989 1.39514e-05 0)
(0.422779 2.45738e-05 0)
(0.427174 1.17337e-05 0)
(0.421825 2.33172e-05 0)
(0.426435 9.97433e-06 0)
(0.420944 2.2872e-05 0)
(0.425757 8.53082e-06 0)
(0.420125 2.25084e-05 0)
(0.425127 7.52848e-06 0)
(0.419357 2.31607e-05 0)
(0.424528 7.30898e-06 0)
(0.418617 2.47378e-05 0)
(0.423933 8.20034e-06 0)
(0.417876 2.81562e-05 0)
(0.423297 1.11126e-05 0)
(0.417079 3.43237e-05 0)
(0.422548 1.7917e-05 0)
(0.416129 4.56431e-05 0)
(0.421554 3.31614e-05 0)
(0.414827 6.69697e-05 0)
(0.420042 7.03869e-05 0)
(0.412679 0.000116339 0)
(0.417339 0.000159721 0)
(0.408363 0.000403024 0)