/*--------------------------------*- C++ -*----------------------------------*\
| =========                 |                                                 |
| \\      /  F ield         | OpenFOAM: The Open Source CFD Toolbox           |
|  \\    /   O peration     | Version:  v2012                                 |
|   \\  /    A nd           | Website:  www.openfoam.com                      |
|    \\/     M anipulation  |                                                 |
\*---------------------------------------------------------------------------*/
FoamFile
{
    version     2.0;
    format      ascii;
    class       volScalarField;
    location    "0.5";
    object      p;
}
// * * * * * * * * * * * * * * * * * * * * * * * * * * * * * * * * * * * * * //

dimensions      [0 2 -2 0 0 0 0];


internalField   nonuniform List<scalar> 
8800
(
-3.15465e-10
0.00068437
0.000767693
0.000816152
0.000712938
0.000698708
0.000555294
0.000426778
0.00019895
-3.50792e-05
-0.000299982
-0.00062167
-0.000986944
-0.00137072
-0.00180179
-0.00227259
-0.00286711
-0.00352233
-0.00444541
-0.006185
3.46004e-06
0.000681836
0.000768591
0.000814332
0.000716005
0.000696332
0.000557884
0.000425555
0.000200552
-3.547e-05
-0.000299381
-0.000630126
-0.000982855
-0.001376
-0.00180056
-0.00228806
-0.00286406
-0.00360511
-0.00456635
-0.00659466
9.51879e-06
0.00067633
0.000770555
0.000810262
0.000722245
0.000691142
0.000563308
0.000423812
0.000197101
-2.93405e-05
-0.000304101
-0.000631396
-0.000980066
-0.00137306
-0.00180497
-0.0023129
-0.00293523
-0.00367061
-0.00453173
-0.00634087
1.55623e-05
0.000671125
0.00077031
0.000809612
0.000724708
0.000691388
0.000562265
0.000430973
0.000180659
-1.06834e-05
-0.000327063
-0.000626256
-0.000986511
-0.00137444
-0.00180765
-0.00230588
-0.00309244
-0.00404976
-0.00531511
-0.00639673
2.58507e-05
0.000659242
0.000774691
0.000801903
0.000738193
0.000678345
0.000580812
0.000415993
0.000199249
-1.88834e-05
-0.000316392
-0.000639458
-0.000983441
-0.00139111
-0.00182548
-0.00231349
-0.00293546
-0.00369679
-0.00468943
-0.00683709
3.65854e-05
0.000647526
0.000774236
0.000801083
0.000741905
0.000681376
0.000583613
0.000413999
0.000200632
-2.76514e-05
-0.000317798
-0.000643184
-0.000992927
-0.00139882
-0.00181364
-0.00230885
-0.00292207
-0.00386654
-0.00520856
-0.00777323
5.06127e-05
0.000631451
0.000776354
0.000795659
0.000749837
0.000681948
0.000582349
0.00042612
0.00019923
-3.02734e-05
-0.000318361
-0.000650292
-0.00100779
-0.00140063
-0.00183779
-0.00230397
-0.00294018
-0.00384488
-0.0052794
-0.00795925
6.90772e-05
0.000606999
0.000780928
0.000790862
0.000759796
0.000689433
0.000579606
0.000429219
0.000203179
-4.09253e-05
-0.000315722
-0.000664339
-0.00102795
-0.00141703
-0.00183306
-0.00231654
-0.0029558
-0.00391293
-0.00547024
-0.00834063
8.87828e-05
0.000591544
0.000764938
0.000799003
0.000750232
0.000711719
0.000579446
0.000428919
0.000214488
-6.3897e-05
-0.000303935
-0.000664822
-0.00105107
-0.00142738
-0.00185051
-0.00233712
-0.00299908
-0.00400749
-0.00566993
-0.00868468
0.000115263
0.000561654
0.000765484
0.000788804
0.000761321
0.000717736
0.000586868
0.000426968
0.000213376
-5.38731e-05
-0.000340279
-0.000684267
-0.00105938
-0.00144466
-0.00186925
-0.00236888
-0.00305674
-0.00411705
-0.00586572
-0.00898076
0.000140597
0.00054549
0.000738931
0.000789147
0.000774019
0.000715625
0.000620914
0.000421043
0.000191668
-3.70502e-05
-0.000360685
-0.000706187
-0.00107474
-0.00146041
-0.00189267
-0.00241145
-0.00312875
-0.00423707
-0.00605872
-0.00925624
0.000173275
0.000524763
0.000709125
0.000792375
0.000773018
0.000728069
0.000637491
0.000422048
0.000188045
-5.46201e-05
-0.0003645
-0.000727886
-0.00109952
-0.00148281
-0.00192192
-0.00246226
-0.00321186
-0.00436382
-0.00624652
-0.00950829
0.000205556
0.000508509
0.000681274
0.000772773
0.000786265
0.000742609
0.000641317
0.000450292
0.000182001
-8.69333e-05
-0.000378403
-0.00074125
-0.00112574
-0.00151381
-0.00195874
-0.00252099
-0.00330323
-0.00449528
-0.00642844
-0.00974631
0.000236816
0.000499264
0.000653202
0.000742284
0.000800943
0.000757258
0.000644756
0.000469329
0.000187265
-0.000110488
-0.000404757
-0.000758286
-0.00114986
-0.00154876
-0.00200317
-0.00258585
-0.00340014
-0.00462927
-0.00660325
-0.00996416
0.0002683
0.000493125
0.00062879
0.000710084
0.000795102
0.000782867
0.000650281
0.000473675
0.000205325
-0.000120835
-0.000440415
-0.000787095
-0.00117656
-0.00158607
-0.00205221
-0.00265504
-0.00350017
-0.00476444
-0.00677374
-0.0101706
0.000296241
0.000490983
0.000610542
0.000676188
0.000770648
0.000802918
0.000678677
0.000464841
0.000209137
-0.000114855
-0.000465126
-0.000826223
-0.00121273
-0.00162791
-0.00210641
-0.00272798
-0.00360164
-0.00489886
-0.00693985
-0.0103674
0.000323967
0.000488495
0.000595904
0.000652981
0.000733999
0.000802
0.000711478
0.00047279
0.00019885
-0.000114589
-0.000474661
-0.000859638
-0.00125714
-0.00167713
-0.00216678
-0.00280524
-0.00370311
-0.00502957
-0.00709878
-0.010552
0.000351611
0.000484042
0.000585897
0.000635981
0.000696583
0.000775877
0.000728554
0.000502834
0.000196542
-0.000125882
-0.000486019
-0.000884118
-0.00129925
-0.00173253
-0.00223294
-0.00288633
-0.00380417
-0.00515538
-0.00725009
-0.0107264
0.000375768
0.000482254
0.000573118
0.00062631
0.000670281
0.000730928
0.000717783
0.000535862
0.000216677
-0.00013603
-0.000503997
-0.00090711
-0.00133636
-0.00178728
-0.00230318
-0.00297028
-0.00390464
-0.00527583
-0.00739183
-0.0108873
0.000396129
0.000483899
0.000558316
0.000617534
0.000657785
0.000686105
0.000674764
0.00054446
0.000255886
-0.00012459
-0.000522759
-0.000934688
-0.00137256
-0.00183955
-0.00237289
-0.00305481
-0.00400312
-0.00538974
-0.00752309
-0.0110352
0.000412779
0.000485622
0.000545365
0.000603296
0.000650052
0.000655108
0.000618701
0.000517576
0.00028331
-8.80097e-05
-0.000521051
-0.000961481
-0.00141036
-0.00189021
-0.00243948
-0.00313661
-0.00409752
-0.00549595
-0.00764244
-0.0111683
0.000425156
0.00048654
0.00053614
0.000584619
0.000635082
0.000639806
0.000572783
0.000462527
0.00027894
-4.74964e-05
-0.000491071
-0.000968923
-0.00144527
-0.00193923
-0.00250231
-0.00321292
-0.00418505
-0.00559308
-0.00774936
-0.0112861
0.000431361
0.000486732
0.000530755
0.000564891
0.000611846
0.000623231
0.000544046
0.000409465
0.000239949
-3.17733e-05
-0.000446832
-0.000948216
-0.00146143
-0.0019816
-0.00255984
-0.00328161
-0.00426283
-0.00567859
-0.00784199
-0.0113868
0.000433598
0.000482583
0.00052472
0.00054882
0.000581507
0.000596832
0.000526959
0.000373711
0.000191332
-4.72953e-05
-0.000415701
-0.000906085
-0.00144909
-0.00200367
-0.0026052
-0.00333924
-0.00432745
-0.00574854
-0.0079174
-0.0114683
0.000433146
0.00047202
0.000514023
0.000536718
0.000550215
0.000560547
0.000505616
0.000356139
0.000155701
-8.04287e-05
-0.000407183
-0.000864312
-0.00141012
-0.00199497
-0.00262549
-0.00337743
-0.0043738
-0.00579893
-0.00797171
-0.0115286
0.000426227
0.00045814
0.000498473
0.00052201
0.000519943
0.00051793
0.000476972
0.00034426
0.000137817
-0.000106391
-0.000415083
-0.000833519
-0.00136082
-0.00195544
-0.00261022
-0.00338202
-0.00439037
-0.00582209
-0.00799997
-0.0115635
0.000412913
0.000440247
0.000477608
0.000500469
0.000489674
0.000475265
0.000441569
0.000329187
0.000132405
-0.000115951
-0.000416873
-0.000810319
-0.00131084
-0.00189794
-0.0025595
-0.00333893
-0.00434701
-0.00577296
-0.00794687
-0.0115136
0.000392601
0.00041797
0.00045065
0.000469931
0.000455452
0.000433951
0.000402125
0.000307855
0.000127962
-0.000111079
-0.000400557
-0.000772385
-0.00124999
-0.00183145
-0.00251181
-0.00332267
-0.00435692
-0.00579284
-0.00796204
-0.0115183
0.000363452
0.000390215
0.000418705
0.00042951
0.000413596
0.000390697
0.000361879
0.000283021
0.000124153
-0.000104387
-0.00037931
-0.000713802
-0.00113312
-0.00164678
-0.0022669
-0.00303839
-0.0040618
-0.00551332
-0.00771065
-0.011294
0.000325115
0.000355331
0.000378342
0.000381106
0.000364887
0.000339847
0.000313975
0.000256681
0.000130778
-7.72065e-05
-0.000363505
-0.00072274
-0.00116606
-0.00169894
-0.00232727
-0.00308472
-0.00406284
-0.00544891
-0.0075825
-0.0111166
0.000281911
0.000313124
0.000325348
0.0003228
0.000312982
0.000284914
0.000245319
0.000188065
0.000108663
-6.32058e-06
-0.000174422
-0.000412507
-0.000735035
-0.0011545
-0.00169424
-0.00240616
-0.0033939
-0.00483419
-0.0070629
-0.0107432
0.000223481
0.000261194
0.000259804
0.000252021
0.000251257
0.000244916
0.00021582
0.000122326
-3.41567e-05
-0.000240972
-0.00049015
-0.000785945
-0.00113216
-0.00152521
-0.00196669
-0.00248448
-0.00316563
-0.00419499
-0.00593454
-0.00910731
0.000175253
0.000183101
0.000188521
0.000173038
0.000141984
0.000124619
0.000130764
0.000168531
0.000207624
0.000226752
0.000201131
0.000103826
-8.76603e-05
-0.000391424
-0.000830836
-0.00145987
-0.00239482
-0.00385286
-0.00617173
-0.010111
0.000105484
8.32734e-05
0.000109947
0.000138354
0.000137736
8.8551e-05
-6.22188e-05
-0.000314504
-0.00064759
-0.00102128
-0.0013704
-0.00162588
-0.00176906
-0.00182798
-0.00181824
-0.00170588
-0.00135247
-0.000473373
0.00136848
0.00493784
8.2571e-06
-1.72597e-06
-2.97596e-05
-5.06249e-05
-3.63875e-05
4.65863e-05
0.000217567
0.00043243
0.000633576
0.000785333
0.000867639
0.000858839
0.000729808
0.000452669
-1.12169e-05
-0.000713294
-0.0017704
-0.00340055
-0.00596641
-0.0100235
-9.09164e-05
-8.57221e-05
-7.01145e-05
-5.01475e-05
-9.68789e-05
-0.00025249
-0.000481332
-0.000745363
-0.000999656
-0.00117469
-0.00121971
-0.00113053
-0.000935277
-0.000645377
-0.00023729
0.00036609
0.00131348
0.00281785
0.00522104
0.00903387
-0.000227702
-0.000261889
-0.00028788
-0.000273925
-0.000177018
4.1041e-05
0.000353762
0.000704114
0.00102766
0.00128212
0.00144922
0.00151932
0.00148302
0.00131314
0.000967799
0.000367687
-0.000620666
-0.00219255
-0.00467056
-0.0085572
-0.000310189
-0.000302275
-0.000318265
-0.000379544
-0.000495007
-0.000651892
-0.000821138
-0.000937174
-0.000937949
-0.000804855
-0.000543873
-0.000157774
0.000354627
0.000998606
0.00179434
0.00279544
0.004099
0.00589247
0.00851168
0.0126107
-0.000471042
-0.000500617
-0.000542721
-0.000554334
-0.000470519
-0.000278942
3.17742e-05
0.000451712
0.000928936
0.00138193
0.00176057
0.00206955
0.00233303
0.00254222
0.00263177
0.00249204
0.00198442
0.00089069
-0.00117706
-0.00495482
-0.000489296
-0.000529652
-0.00066746
-0.000872516
-0.00109763
-0.00129249
-0.00138969
-0.00133638
-0.00110667
-0.000692464
-8.74033e-05
0.000718333
0.00173293
0.00296545
0.00442923
0.00613774
0.00811677
0.0104548
0.0133958
0.0175275
-0.00784432
-0.00708159
-0.00436655
-0.00170269
0.000368888
0.00179867
0.00265887
0.00303251
0.00298758
0.00260081
0.00197889
0.00124986
0.000529378
-0.000104906
-0.000615832
-0.000998427
-0.00126992
-0.00145949
-0.00159837
-0.00171293
-0.00182327
-0.00194253
-0.00207907
-0.0022363
-0.00241482
-0.0026135
-0.00283061
-0.00306495
-0.00331476
-0.00357895
-0.00385589
-0.00414437
-0.00444306
-0.00475087
-0.00506601
-0.00538668
-0.00571131
-0.00603965
-0.00637354
-0.00671511
-0.00706825
-0.00743588
-0.00782071
-0.00822534
-0.00865105
-0.0090983
-0.00956619
-0.0100538
-0.0105553
-0.0110635
-0.0115703
-0.0120622
-0.0125308
-0.0129722
-0.0133791
-0.0137455
-0.0140655
-0.0143336
-0.0145454
-0.0146983
-0.0147978
-0.0148607
-0.0149087
-0.0149547
-0.0150038
-0.0150563
-0.0151078
-0.0151632
-0.0152391
-0.015353
-0.0155103
-0.0157024
-0.0159106
-0.0161097
-0.0162877
-0.016458
-0.0166441
-0.0168711
-0.0171513
-0.017467
-0.0177847
-0.0180729
-0.0183232
-0.0185637
-0.0188251
-0.0191128
-0.0194217
-0.0197335
-0.0200266
-0.0203041
-0.020586
-0.0208856
-0.0212069
-0.0215351
-0.0218521
-0.0221599
-0.0224691
-0.0227819
-0.0230969
-0.0234037
-0.0237005
-0.024014
-0.0243587
-0.024704
-0.025027
-0.025351
-0.0256938
-0.0260392
-0.0263741
-0.0267089
-0.0270512
-0.027397
-0.0277409
-0.0280856
-0.0284361
-0.0287909
-0.0291438
-0.0294951
-0.029851
-0.0302106
-0.0305703
-0.0309321
-0.0313015
-0.0316754
-0.032049
-0.0324233
-0.032802
-0.0331853
-0.033571
-0.0339594
-0.0343512
-0.0347473
-0.0351464
-0.035549
-0.0359551
-0.0363653
-0.036779
-0.0371962
-0.0376165
-0.0380402
-0.0384676
-0.0388992
-0.0393352
-0.0397761
-0.0402216
-0.0406724
-0.0411272
-0.0415871
-0.0420507
-0.0425192
-0.0429914
-0.0434683
-0.0439494
-0.0444348
-0.0449249
-0.0454193
-0.0459184
-0.0464222
-0.0469304
-0.0474441
-0.0479613
-0.0484849
-0.0490114
-0.0495448
-0.0500813
-0.0506243
-0.0511716
-0.0517243
-0.0522827
-0.0528452
-0.0534143
-0.0539873
-0.0545664
-0.0551507
-0.0557392
-0.0563353
-0.0569332
-0.0575406
-0.0581489
-0.0587662
-0.0593861
-0.0600128
-0.0606431
-0.0612809
-0.0619191
-0.0625693
-0.0632144
-0.0638742
-0.0645283
-0.0651927
-0.0658537
-0.0665217
-0.0671794
-0.0678461
-0.0684893
-0.0691334
-0.0697381
-0.0703218
-0.0708086
-0.0712537
-0.00843383
-0.00751676
-0.00464166
-0.00188862
0.000282209
0.00181805
0.00274613
0.00312865
0.00304991
0.00262048
0.00197138
0.00123285
0.000512538
-0.000119018
-0.000628572
-0.0010118
-0.00128491
-0.00147589
-0.00161532
-0.00172951
-0.00183894
-0.00195706
-0.00209267
-0.00224925
-0.00242751
-0.00262612
-0.00284331
-0.00307772
-0.00332753
-0.00359172
-0.00386844
-0.00415673
-0.00445496
-0.00476239
-0.00507715
-0.00539748
-0.00572191
-0.00604965
-0.00638299
-0.00672353
-0.00707561
-0.00744188
-0.00782498
-0.00822772
-0.00865101
-0.0090965
-0.00956187
-0.0100464
-0.0105453
-0.0110503
-0.0115537
-0.012042
-0.0125057
-0.0129417
-0.0133469
-0.013716
-0.0140393
-0.0143104
-0.0145247
-0.0146798
-0.0147817
-0.0148462
-0.0148958
-0.014944
-0.0149948
-0.015049
-0.015102
-0.0151579
-0.015234
-0.0153483
-0.0155067
-0.0156997
-0.0159082
-0.0161073
-0.0162854
-0.0164556
-0.0166413
-0.0168682
-0.0171489
-0.0174647
-0.0177822
-0.0180703
-0.0183202
-0.0185608
-0.0188227
-0.0191108
-0.0194199
-0.0197317
-0.0200246
-0.0203021
-0.020584
-0.0208835
-0.0212049
-0.0215332
-0.0218503
-0.0221584
-0.0224679
-0.0227809
-0.0230961
-0.0234031
-0.0236995
-0.0240127
-0.0243578
-0.0247033
-0.0250261
-0.0253501
-0.0256931
-0.0260386
-0.0263735
-0.0267084
-0.0270508
-0.0273968
-0.0277406
-0.0280853
-0.0284358
-0.0287907
-0.0291436
-0.0294949
-0.0298508
-0.0302105
-0.0305702
-0.030932
-0.0313014
-0.0316754
-0.0320491
-0.0324233
-0.032802
-0.0331853
-0.033571
-0.0339594
-0.0343513
-0.0347474
-0.0351465
-0.0355491
-0.0359552
-0.0363654
-0.0367791
-0.0371963
-0.0376166
-0.0380403
-0.0384677
-0.0388993
-0.0393353
-0.0397762
-0.0402217
-0.0406725
-0.0411273
-0.0415872
-0.0420507
-0.0425192
-0.0429914
-0.0434683
-0.0439494
-0.0444348
-0.044925
-0.0454193
-0.0459184
-0.0464222
-0.0469304
-0.0474441
-0.0479613
-0.0484849
-0.0490114
-0.0495448
-0.0500813
-0.0506243
-0.0511716
-0.0517243
-0.0522827
-0.0528452
-0.0534143
-0.0539873
-0.0545664
-0.0551507
-0.0557392
-0.0563354
-0.0569332
-0.0575406
-0.0581489
-0.0587662
-0.0593861
-0.0600128
-0.0606431
-0.061281
-0.0619191
-0.0625694
-0.0632144
-0.0638742
-0.0645283
-0.0651928
-0.0658537
-0.0665217
-0.0671794
-0.0678462
-0.0684894
-0.0691337
-0.0697381
-0.0703224
-0.0708105
-0.0712549
-0.00842586
-0.00792877
-0.00529956
-0.00249086
-6.05324e-05
0.00174803
0.00285967
0.00329247
0.00316343
0.00265654
0.00195421
0.00119675
0.000478447
-0.000144937
-0.00064808
-0.00102871
-0.00130208
-0.00149426
-0.00163443
-0.00174837
-0.00185671
-0.00197344
-0.00210779
-0.00226363
-0.00244167
-0.00264055
-0.00285824
-0.00309327
-0.00334361
-0.00360822
-0.00388515
-0.00417337
-0.00447141
-0.00477832
-0.00509283
-0.00541284
-0.00573702
-0.00606444
-0.00639701
-0.00673669
-0.0070874
-0.00745171
-0.00783199
-0.00823102
-0.00864982
-0.00909094
-0.00955182
-0.0100313
-0.0105253
-0.0110233
-0.0115173
-0.0119947
-0.012447
-0.0128727
-0.0132703
-0.0136364
-0.0139605
-0.0142349
-0.0144546
-0.014617
-0.0147284
-0.0148025
-0.0148598
-0.0149146
-0.0149711
-0.0150305
-0.0150887
-0.0151494
-0.0152312
-0.0153503
-0.0155098
-0.0157004
-0.0159058
-0.0161046
-0.0162854
-0.0164595
-0.0166487
-0.0168765
-0.0171548
-0.0174666
-0.0177803
-0.0180669
-0.0183183
-0.0185611
-0.0188242
-0.0191121
-0.0194196
-0.0197297
-0.0200223
-0.0203006
-0.0205834
-0.020883
-0.0212037
-0.0215313
-0.0218483
-0.0221566
-0.0224661
-0.022779
-0.023094
-0.0234013
-0.0236984
-0.0240118
-0.0243564
-0.0247015
-0.0250245
-0.0253487
-0.0256916
-0.0260369
-0.0263718
-0.0267067
-0.0270493
-0.0273952
-0.0277392
-0.028084
-0.0284346
-0.0287895
-0.0291425
-0.0294939
-0.0298499
-0.0302096
-0.0305693
-0.0309312
-0.0313006
-0.0316746
-0.0320483
-0.0324226
-0.0328014
-0.0331848
-0.0335705
-0.0339589
-0.0343509
-0.034747
-0.0351461
-0.0355488
-0.035955
-0.0363652
-0.0367789
-0.0371961
-0.0376165
-0.0380402
-0.0384676
-0.0388992
-0.0393352
-0.0397762
-0.0402217
-0.0406725
-0.0411272
-0.0415872
-0.0420507
-0.0425192
-0.0429915
-0.0434683
-0.0439494
-0.0444348
-0.044925
-0.0454193
-0.0459185
-0.0464223
-0.0469304
-0.0474442
-0.0479613
-0.048485
-0.0490114
-0.0495448
-0.0500813
-0.0506243
-0.0511716
-0.0517243
-0.0522827
-0.0528451
-0.0534143
-0.0539873
-0.0545664
-0.0551507
-0.0557392
-0.0563354
-0.0569332
-0.0575406
-0.0581489
-0.0587662
-0.0593861
-0.0600128
-0.0606431
-0.061281
-0.0619191
-0.0625694
-0.0632144
-0.0638743
-0.0645284
-0.0651928
-0.0658538
-0.0665219
-0.0671797
-0.0678466
-0.0684899
-0.0691346
-0.0697396
-0.0703245
-0.0708189
-0.0712628
-0.00629931
-0.00652928
-0.00576523
-0.00346966
-0.000690267
0.00154584
0.0029055
0.00339087
0.00320783
0.00263079
0.00188417
0.00111391
0.000403159
-0.000205849
-0.000696253
-0.00106888
-0.00133875
-0.00152986
-0.00166946
-0.00178215
-0.00188842
-0.00200263
-0.00213449
-0.00228844
-0.00246518
-0.00266356
-0.00288109
-0.00311637
-0.00336694
-0.00363175
-0.0039088
-0.00419681
-0.00449475
-0.00480115
-0.00511548
-0.00543522
-0.00575914
-0.00608619
-0.00641762
-0.00675585
-0.00710398
-0.00746498
-0.00784077
-0.00823436
-0.00864719
-0.00908229
-0.0095381
-0.010012
-0.0104997
-0.0109896
-0.0114725
-0.0119374
-0.0123773
-0.0127919
-0.0131802
-0.0135412
-0.0138663
-0.0141459
-0.0143735
-0.0145448
-0.0146667
-0.0147516
-0.0148171
-0.0148788
-0.0149419
-0.0150073
-0.0150717
-0.0151401
-0.0152292
-0.0153523
-0.0155118
-0.0156992
-0.0159007
-0.0160993
-0.0162839
-0.0164633
-0.0166569
-0.0168858
-0.0171613
-0.0174676
-0.0177756
-0.0180602
-0.0183138
-0.0185591
-0.0188237
-0.0191115
-0.0194167
-0.0197247
-0.0200172
-0.020297
-0.0205814
-0.0208817
-0.0212008
-0.0215265
-0.0218426
-0.0221512
-0.022461
-0.0227737
-0.0230886
-0.0233972
-0.0236965
-0.0240104
-0.0243534
-0.0246974
-0.0250209
-0.0253456
-0.025688
-0.0260328
-0.0263679
-0.0267033
-0.027046
-0.027392
-0.0277362
-0.0280813
-0.0284319
-0.0287867
-0.0291398
-0.0294915
-0.0298476
-0.0302074
-0.0305674
-0.0309295
-0.031299
-0.0316729
-0.0320468
-0.0324213
-0.0328002
-0.0331836
-0.0335694
-0.033958
-0.03435
-0.0347462
-0.0351454
-0.0355482
-0.0359544
-0.0363647
-0.0367784
-0.0371957
-0.0376161
-0.0380399
-0.0384674
-0.0388991
-0.0393352
-0.0397762
-0.0402217
-0.0406725
-0.0411272
-0.0415871
-0.0420507
-0.0425192
-0.0429914
-0.0434683
-0.0439494
-0.0444348
-0.044925
-0.0454193
-0.0459185
-0.0464223
-0.0469304
-0.0474442
-0.0479613
-0.048485
-0.0490114
-0.0495448
-0.0500813
-0.0506244
-0.0511717
-0.0517243
-0.0522827
-0.0528452
-0.0534143
-0.0539873
-0.0545664
-0.0551508
-0.0557392
-0.0563354
-0.0569332
-0.0575407
-0.0581489
-0.0587663
-0.0593861
-0.0600128
-0.0606432
-0.061281
-0.0619191
-0.0625695
-0.0632145
-0.0638744
-0.0645286
-0.0651929
-0.0658542
-0.0665221
-0.0671803
-0.0678472
-0.0684912
-0.0691362
-0.0697429
-0.0703284
-0.0708327
-0.0712772
-0.00920259
-0.00882827
-0.00617079
-0.00305211
-0.000221634
0.00188109
0.00311778
0.00351467
0.00327017
0.00264968
0.0018743
0.00108943
0.000375113
-0.000231452
-0.000717708
-0.00108727
-0.00135619
-0.00154803
-0.00168879
-0.00180209
-0.00190799
-0.0020211
-0.00215152
-0.00230426
-0.00248024
-0.0026785
-0.00289639
-0.00313238
-0.00338389
-0.00364955
-0.00392745
-0.00421602
-0.00451448
-0.00482117
-0.00513566
-0.00545542
-0.00577907
-0.00610552
-0.00643558
-0.00677177
-0.00711671
-0.00747368
-0.00784463
-0.00823262
-0.00863938
-0.00906833
-0.00951869
-0.0099864
-0.0104667
-0.0109473
-0.0114186
-0.0118715
-0.0122992
-0.0127023
-0.0130803
-0.0134353
-0.0137615
-0.0140478
-0.0142845
-0.0144656
-0.0145978
-0.0146929
-0.0147665
-0.0148356
-0.0149066
-0.0149792
-0.0150523
-0.0151303
-0.0152258
-0.0153511
-0.0155096
-0.015694
-0.015893
-0.016093
-0.0162827
-0.0164679
-0.0166655
-0.0168946
-0.0171666
-0.017467
-0.0177693
-0.0180523
-0.0183084
-0.0185565
-0.0188226
-0.0191105
-0.0194135
-0.019719
-0.0200117
-0.0202931
-0.0205793
-0.0208801
-0.0211973
-0.0215204
-0.0218358
-0.0221448
-0.022455
-0.0227676
-0.0230825
-0.0233927
-0.0236944
-0.0240085
-0.0243492
-0.024692
-0.0250163
-0.0253417
-0.0256835
-0.0260277
-0.0263631
-0.026699
-0.0270417
-0.0273876
-0.027732
-0.0280774
-0.0284279
-0.0287826
-0.0291359
-0.029488
-0.0298443
-0.0302044
-0.0305647
-0.0309272
-0.0312967
-0.0316705
-0.0320444
-0.0324191
-0.0327983
-0.0331817
-0.0335676
-0.0339563
-0.0343485
-0.0347448
-0.0351441
-0.035547
-0.0359533
-0.0363636
-0.0367775
-0.0371948
-0.0376153
-0.0380392
-0.0384669
-0.0388987
-0.0393349
-0.039776
-0.0402215
-0.0406723
-0.041127
-0.041587
-0.0420505
-0.042519
-0.0429912
-0.0434681
-0.0439493
-0.0444347
-0.0449248
-0.0454192
-0.0459184
-0.0464222
-0.0469304
-0.0474442
-0.0479613
-0.048485
-0.0490114
-0.0495449
-0.0500814
-0.0506244
-0.0511717
-0.0517244
-0.0522828
-0.0528452
-0.0534144
-0.0539873
-0.0545665
-0.0551508
-0.0557392
-0.0563354
-0.0569332
-0.0575407
-0.058149
-0.0587663
-0.0593861
-0.0600129
-0.0606432
-0.0612811
-0.0619192
-0.0625695
-0.0632147
-0.0638744
-0.0645289
-0.0651931
-0.0658547
-0.0665225
-0.0671812
-0.067848
-0.0684932
-0.069138
-0.0697478
-0.0703338
-0.0708492
-0.0712965
-0.0100574
-0.00923176
-0.00584552
-0.00237546
0.000384978
0.00227889
0.00330848
0.00358154
0.00328194
0.0026354
0.0018466
0.0010546
0.000337186
-0.000269508
-0.000754047
-0.00112109
-0.00138788
-0.00157826
-0.00171799
-0.00183021
-0.0019346
-0.00204596
-0.00217438
-0.00232541
-0.00250005
-0.00269752
-0.00291529
-0.00315147
-0.00340372
-0.00367011
-0.00394883
-0.00423811
-0.00453709
-0.00484429
-0.00515886
-0.00547844
-0.00580142
-0.00612662
-0.00645472
-0.00678821
-0.00712949
-0.00748189
-0.00784777
-0.00823002
-0.0086306
-0.00905309
-0.00949718
-0.00995812
-0.0104304
-0.0109015
-0.0113619
-0.0118036
-0.0122192
-0.01261
-0.0129778
-0.0133265
-0.0136534
-0.0139466
-0.0141929
-0.0143843
-0.0145265
-0.014631
-0.0147124
-0.0147896
-0.0148692
-0.0149503
-0.0150333
-0.0151207
-0.0152214
-0.0153478
-0.0155051
-0.0156877
-0.0158857
-0.0160877
-0.0162827
-0.0164732
-0.0166737
-0.0169024
-0.0171706
-0.0174657
-0.0177632
-0.0180448
-0.0183034
-0.0185543
-0.0188216
-0.0191096
-0.0194102
-0.0197131
-0.0200058
-0.020289
-0.0205767
-0.0208776
-0.021193
-0.0215137
-0.0218287
-0.0221384
-0.0224488
-0.0227612
-0.0230761
-0.0233877
-0.0236916
-0.0240058
-0.0243444
-0.0246861
-0.0250114
-0.0253374
-0.0256784
-0.026022
-0.0263577
-0.0266941
-0.0270368
-0.0273826
-0.0277272
-0.028073
-0.0284235
-0.0287779
-0.0291315
-0.0294841
-0.0298407
-0.0302009
-0.0305616
-0.0309244
-0.0312939
-0.0316675
-0.0320416
-0.0324167
-0.032796
-0.0331796
-0.0335657
-0.0339545
-0.0343468
-0.0347431
-0.0351426
-0.0355456
-0.035952
-0.0363624
-0.0367763
-0.0371937
-0.0376144
-0.0380384
-0.0384662
-0.0388982
-0.0393345
-0.0397757
-0.0402213
-0.0406721
-0.0411268
-0.0415867
-0.0420503
-0.0425188
-0.042991
-0.0434679
-0.0439491
-0.0444345
-0.0449247
-0.0454191
-0.0459183
-0.0464222
-0.0469303
-0.0474441
-0.0479613
-0.048485
-0.0490115
-0.0495449
-0.0500814
-0.0506245
-0.0511718
-0.0517245
-0.0522829
-0.0528453
-0.0534145
-0.0539874
-0.0545665
-0.0551509
-0.0557392
-0.0563355
-0.0569332
-0.0575407
-0.058149
-0.0587663
-0.0593862
-0.0600129
-0.0606433
-0.0612812
-0.0619194
-0.0625696
-0.0632151
-0.0638744
-0.0645294
-0.0651932
-0.0658554
-0.0665228
-0.0671825
-0.0678488
-0.0684957
-0.0691402
-0.0697539
-0.0703406
-0.0708665
-0.0713184
-0.0104302
-0.00970587
-0.00614068
-0.00244833
0.000446512
0.0023791
0.0033691
0.00357736
0.00323686
0.00257802
0.00178846
0.000996929
0.000279226
-0.000327629
-0.000811252
-0.0011756
-0.00143843
-0.00162447
-0.00176023
-0.00186906
-0.00197039
-0.00207895
-0.00220468
-0.00235327
-0.00252588
-0.00272177
-0.00293868
-0.0031745
-0.00342705
-0.00369407
-0.00397354
-0.00426365
-0.00456322
-0.00487092
-0.0051855
-0.00550463
-0.00582652
-0.00614987
-0.0064754
-0.00680562
-0.00714274
-0.00749019
-0.00785042
-0.00822649
-0.00862074
-0.00903644
-0.00947388
-0.00992793
-0.0103922
-0.0108544
-0.0113045
-0.0117348
-0.0121377
-0.0125157
-0.0128736
-0.0132168
-0.0135442
-0.0138434
-0.0140992
-0.0143008
-0.0144525
-0.0145657
-0.0146552
-0.014741
-0.01483
-0.0149208
-0.0150137
-0.0151093
-0.0152145
-0.0153422
-0.0154994
-0.015682
-0.0158798
-0.0160832
-0.0162826
-0.0164777
-0.0166809
-0.0169092
-0.0171739
-0.0174647
-0.0177582
-0.0180382
-0.0182989
-0.0185519
-0.01882
-0.0191079
-0.0194063
-0.0197065
-0.0199995
-0.0202847
-0.0205737
-0.0208747
-0.0211883
-0.0215071
-0.0218217
-0.0221318
-0.0224421
-0.0227542
-0.0230691
-0.023382
-0.023688
-0.0240025
-0.0243392
-0.0246799
-0.0250061
-0.0253326
-0.0256728
-0.0260159
-0.0263519
-0.0266888
-0.0270316
-0.0273773
-0.0277222
-0.0280683
-0.0284187
-0.028773
-0.0291267
-0.0294798
-0.0298366
-0.0301969
-0.0305581
-0.0309213
-0.0312909
-0.0316645
-0.0320387
-0.032414
-0.0327936
-0.0331773
-0.0335634
-0.0339524
-0.0343448
-0.0347414
-0.0351409
-0.0355441
-0.0359506
-0.0363611
-0.0367751
-0.0371925
-0.0376133
-0.0380375
-0.0384655
-0.0388977
-0.0393341
-0.0397754
-0.040221
-0.0406718
-0.0411266
-0.0415865
-0.04205
-0.0425185
-0.0429908
-0.0434677
-0.0439489
-0.0444343
-0.0449245
-0.045419
-0.0459182
-0.0464221
-0.0469303
-0.0474441
-0.0479613
-0.048485
-0.0490115
-0.0495449
-0.0500815
-0.0506246
-0.0511719
-0.0517246
-0.0522829
-0.0528454
-0.0534146
-0.0539875
-0.0545666
-0.0551509
-0.0557393
-0.0563356
-0.0569333
-0.0575408
-0.0581491
-0.0587664
-0.0593863
-0.060013
-0.0606434
-0.0612812
-0.0619196
-0.0625696
-0.0632154
-0.0638744
-0.06453
-0.0651933
-0.0658563
-0.0665232
-0.067184
-0.0678498
-0.0684987
-0.0691428
-0.0697607
-0.0703486
-0.0708839
-0.0713417
-0.0109492
-0.0102876
-0.00662186
-0.00268931
0.000420653
0.0024826
0.00351033
0.0036933
0.00330493
0.0026034
0.00178442
0.000974706
0.000246072
-0.000366984
-0.000853337
-0.00121739
-0.00147773
-0.00166024
-0.00179233
-0.00189801
-0.00199663
-0.00210292
-0.00222671
-0.00237356
-0.00254481
-0.00273962
-0.00295597
-0.00319179
-0.00344493
-0.00371304
-0.00399387
-0.0042854
-0.00458613
-0.0048947
-0.00520968
-0.00552864
-0.00584959
-0.00617098
-0.00649371
-0.00682016
-0.00715267
-0.00749489
-0.00784893
-0.00821855
-0.00860665
-0.00901575
-0.00944683
-0.00989429
-0.0103506
-0.010804
-0.0112435
-0.0116611
-0.0120508
-0.0124169
-0.0127661
-0.0131045
-0.0134316
-0.0137351
-0.0139994
-0.0142118
-0.0143732
-0.0144947
-0.0145926
-0.014687
-0.014786
-0.0148873
-0.0149897
-0.0150933
-0.0152039
-0.015334
-0.0154919
-0.0156746
-0.0158723
-0.0160769
-0.0162801
-0.01648
-0.0166863
-0.0169147
-0.0171764
-0.0174629
-0.0177525
-0.0180309
-0.0182932
-0.0185481
-0.0188168
-0.0191049
-0.0194018
-0.0196997
-0.0199929
-0.0202798
-0.0205701
-0.0208712
-0.0211832
-0.0214998
-0.0218139
-0.0221242
-0.0224344
-0.0227463
-0.0230614
-0.0233755
-0.0236839
-0.0239989
-0.0243336
-0.0246731
-0.0250003
-0.0253273
-0.0256668
-0.0260093
-0.0263457
-0.0266831
-0.0270258
-0.0273714
-0.0277166
-0.028063
-0.0284134
-0.0287675
-0.0291215
-0.0294751
-0.0298322
-0.0301927
-0.0305544
-0.030918
-0.0312876
-0.0316611
-0.0320354
-0.032411
-0.0327908
-0.0331747
-0.033561
-0.0339502
-0.0343428
-0.0347394
-0.0351391
-0.0355423
-0.035949
-0.0363596
-0.0367736
-0.0371912
-0.0376121
-0.0380365
-0.0384647
-0.038897
-0.0393335
-0.0397749
-0.0402206
-0.0406715
-0.0411262
-0.0415861
-0.0420497
-0.0425182
-0.0429905
-0.0434674
-0.0439486
-0.0444341
-0.0449243
-0.0454188
-0.045918
-0.046422
-0.0469302
-0.047444
-0.0479612
-0.0484849
-0.0490115
-0.049545
-0.0500815
-0.0506247
-0.051172
-0.0517246
-0.052283
-0.0528455
-0.0534146
-0.0539876
-0.0545667
-0.055151
-0.0557394
-0.0563356
-0.0569334
-0.0575408
-0.0581492
-0.0587664
-0.0593864
-0.060013
-0.0606436
-0.0612812
-0.0619198
-0.0625695
-0.0632159
-0.0638744
-0.0645306
-0.0651934
-0.0658573
-0.0665236
-0.0671858
-0.0678509
-0.0685021
-0.0691459
-0.0697679
-0.0703578
-0.0709011
-0.0713658
-0.0113553
-0.0107141
-0.00697305
-0.00287944
0.000396814
0.00258632
0.0036804
0.00385939
0.00342261
0.00266234
0.00179518
0.000953456
0.000206049
-0.000416849
-0.000906918
-0.00127037
-0.00152735
-0.00170522
-0.00183253
-0.00193388
-0.00202875
-0.00213181
-0.00225286
-0.00239753
-0.00256702
-0.00276057
-0.00297605
-0.00321157
-0.00346508
-0.00373409
-0.00401638
-0.00430935
-0.0046113
-0.00492073
-0.00523597
-0.0055548
-0.00587465
-0.00619384
-0.00651312
-0.00683483
-0.007162
-0.0074984
-0.00784598
-0.00820897
-0.00859097
-0.00899384
-0.00941879
-0.00985963
-0.0103076
-0.0107516
-0.0111794
-0.0115836
-0.0119606
-0.0123163
-0.0126582
-0.0129917
-0.0133174
-0.0136235
-0.0138953
-0.0141192
-0.0142907
-0.0144206
-0.0145269
-0.0146297
-0.0147387
-0.0148508
-0.0149632
-0.0150756
-0.0151924
-0.0153253
-0.0154837
-0.0156659
-0.0158635
-0.0160698
-0.0162773
-0.0164819
-0.0166913
-0.0169202
-0.0171789
-0.0174607
-0.0177466
-0.0180237
-0.0182876
-0.0185444
-0.0188137
-0.0191018
-0.0193976
-0.0196934
-0.0199863
-0.0202745
-0.0205657
-0.0208671
-0.0211776
-0.0214919
-0.0218054
-0.0221164
-0.0224268
-0.0227386
-0.0230538
-0.0233692
-0.0236797
-0.0239951
-0.0243277
-0.0246659
-0.0249941
-0.0253218
-0.0256604
-0.0260023
-0.0263391
-0.026677
-0.0270198
-0.0273653
-0.0277107
-0.0280576
-0.028408
-0.028762
-0.0291163
-0.0294704
-0.0298277
-0.0301884
-0.0305504
-0.0309145
-0.0312841
-0.0316575
-0.032032
-0.0324079
-0.032788
-0.033172
-0.0335585
-0.0339478
-0.0343406
-0.0347374
-0.0351372
-0.0355406
-0.0359474
-0.036358
-0.0367722
-0.0371899
-0.0376109
-0.0380355
-0.0384639
-0.0388964
-0.0393331
-0.0397746
-0.0402203
-0.0406712
-0.041126
-0.0415858
-0.0420494
-0.0425179
-0.0429902
-0.0434672
-0.0439484
-0.0444339
-0.0449242