/*--------------------------------*- C++ -*----------------------------------*\
| =========                 |                                                 |
| \\      /  F ield         | OpenFOAM: The Open Source CFD Toolbox           |
|  \\    /   O peration     | Version:  v2012                                 |
|   \\  /    A nd           | Website:  www.openfoam.com                      |
|    \\/     M anipulation  |                                                 |
\*---------------------------------------------------------------------------*/
FoamFile
{
    version     2.0;
    format      ascii;
    class       surfaceScalarField;
    location    "0.5";
    object      phi;
}
// * * * * * * * * * * * * * * * * * * * * * * * * * * * * * * * * * * * * * //

dimensions      [0 3 -1 0 0 0 0];
oriented        oriented;


internalField   nonuniform List<scalar> 
17340
(
3.87629e-06
-1.14195e-07
3.88268e-06
8.30553e-08
3.87624e-06
-7.56503e-08
3.88388e-06
5.75971e-08
3.87682e-06
-4.40926e-08
3.88549e-06
4.1527e-08
3.87716e-06
-2.85366e-08
3.88603e-06
2.30403e-08
3.87933e-06
-2.31224e-08
3.8862e-06
1.93044e-08
3.88224e-06
-1.46869e-08
3.88552e-06
1.06138e-08
3.88216e-06
-1.11306e-08
3.88558e-06
3.53178e-09
3.8828e-06
-9.42977e-09
3.88471e-06
2.56425e-09
3.88096e-06
-1.45719e-09
3.87572e-06
7.95348e-09
3.86207e-06
1.83482e-08
2.68231e-08
3.84657e-06
4.17984e-06
-1.08176e-07
4.19178e-06
7.1116e-08
4.18211e-06
-6.59828e-08
4.19248e-06
4.72258e-08
4.18361e-06
-3.52188e-08
4.19337e-06
3.17669e-08
4.18478e-06
-1.99417e-08
4.193e-06
1.48178e-08
4.18796e-06
-1.80833e-08
4.19076e-06
1.64992e-08
4.19353e-06
-1.74488e-08
4.19194e-06
1.22038e-08
4.19593e-06
-1.51208e-08
4.19364e-06
5.82036e-09
4.19596e-06
-1.17568e-08
4.19188e-06
6.64503e-09
4.19328e-06
-2.85159e-09
4.18241e-06
1.88182e-08
4.17758e-06
2.31828e-08
4.51982e-08
4.1592e-06
4.51325e-06
-1.0136e-07
4.52416e-06
6.01989e-08
4.51383e-06
-5.5654e-08
4.52236e-06
3.87016e-08
4.51422e-06
-2.70835e-08
4.52224e-06
2.37458e-08
4.51539e-06
-1.30843e-08
4.52252e-06
7.68619e-09
4.51717e-06
-1.27315e-08
4.52299e-06
1.06746e-08
4.52014e-06
-1.45985e-08
4.52199e-06
1.03514e-08
4.52177e-06
-1.48941e-08
4.52092e-06
6.66738e-09
4.52266e-06
-1.34954e-08
4.52273e-06
6.57147e-09
4.52415e-06
-4.2736e-09
4.51067e-06
3.23019e-08
4.49445e-06
3.94046e-08
6.14847e-08
4.47816e-06
4.8743e-06
-9.47099e-08
4.88498e-06
4.95204e-08
4.87367e-06
-4.43456e-08
4.8822e-06
3.01685e-08
4.87295e-06
-1.78312e-08
4.88239e-06
1.43048e-08
4.87318e-06
-3.87353e-09
4.88539e-06
-4.52104e-09
4.87233e-06
3.20401e-10
4.89035e-06
-7.33796e-09
4.87388e-06
1.87338e-09
4.89335e-06
-9.11911e-09
4.87745e-06
1.00189e-09
4.89195e-06
-7.82898e-09
4.87453e-06
3.9232e-09
4.88472e-06
-3.61833e-09
4.87839e-06
2.05586e-09
4.93022e-06
-1.95257e-08
4.98201e-06
-1.23937e-08
-4.97432e-09
5.04847e-06
5.26385e-06
-8.79161e-08
5.27485e-06
3.85238e-08
5.26387e-06
-3.33642e-08
5.27075e-06
2.32893e-08
5.26437e-06
-1.14565e-08
5.26706e-06
1.16184e-08
5.26905e-06
-5.8674e-09
5.26527e-06
-7.39654e-10
5.27074e-06
-5.14348e-09
5.26852e-06
-5.1228e-09
5.26832e-06
2.06932e-09
5.26879e-06
-9.5816e-09
5.26874e-06
1.04487e-09
5.26621e-06
-5.29756e-09
5.26871e-06
1.42529e-09
5.2677e-06
-2.60473e-09
5.26615e-06
3.59846e-09
5.25392e-06
-7.29068e-09
5.23889e-06
2.63533e-09
1.33141e-08
5.2206e-06
5.68433e-06
-8.07911e-08
5.69608e-06
2.67827e-08
5.68458e-06
-2.18713e-08
5.69185e-06
1.60214e-08
5.6844e-06
-4.00952e-09
5.68852e-06
7.50142e-09
5.68866e-06
-6.00404e-09
5.68545e-06
2.46448e-09
5.69287e-06
-1.25591e-08
5.68699e-06
7.57185e-10
5.69421e-06
-5.15445e-09
5.68738e-06
-2.75108e-09
5.6924e-06
-3.97738e-09
5.68501e-06
2.09977e-09
5.68814e-06
-1.70879e-09
5.68179e-06
3.74986e-09
5.68594e-06
-5.50877e-10
5.67485e-06
3.79084e-09
5.67159e-06
5.89734e-09
2.87153e-08
5.65619e-06
6.13855e-06
-7.34746e-08
6.15046e-06
1.48743e-08
6.14069e-06
-1.2097e-08
6.14545e-06
1.12571e-08
6.14087e-06
5.76639e-10
6.14057e-06
7.80176e-09
6.1435e-06
-8.93658e-09
6.14107e-06
4.89199e-09
6.14184e-06
-1.33247e-08
6.14347e-06
-8.76336e-10
6.14045e-06
-2.13925e-09
6.14287e-06
-5.16704e-09
6.14018e-06
-1.28493e-09
6.14059e-06
1.68633e-09
6.13793e-06
9.48436e-10
6.13821e-06
3.47759e-09
6.13383e-06
3.82968e-09
6.129e-06
8.61308e-09
6.12115e-06
1.37515e-08
3.21235e-08
6.11774e-06
6.62935e-06
-6.62623e-08
6.64018e-06
4.04586e-09
6.6362e-06
-8.11621e-09
6.63378e-06
1.36788e-08
6.63634e-06
-1.99218e-09
6.62791e-06
1.62387e-08
6.63595e-06
-1.6978e-08
6.63061e-06
1.02317e-08
6.63391e-06
-1.66238e-08
6.63049e-06
2.54591e-09
6.63387e-06
-5.52573e-09
6.62993e-06
-1.22925e-09
6.63112e-06
-2.46591e-09
6.62857e-06
4.23633e-09
6.62828e-06
1.23676e-09
6.62572e-06
6.03782e-09
6.62267e-06
6.88116e-09
6.61829e-06
1.29844e-08
6.61246e-06
1.95897e-08
3.4553e-08
6.61003e-06
7.15912e-06
-5.89557e-08
7.17061e-06
-7.44535e-09
7.16517e-06
-2.66654e-09
7.16757e-06
1.12755e-08
7.15896e-06
6.6175e-09
7.16887e-06
6.33138e-09
7.15375e-06
-1.86312e-09
7.17236e-06
-8.37958e-09
7.15812e-06
-2.3794e-09
7.1671e-06
-6.43319e-09
7.16399e-06
-2.41787e-09
7.16129e-06
1.46734e-09
7.15847e-06
3.58301e-10
7.15815e-06
4.55446e-09
7.1558e-06
3.58708e-09
7.15399e-06
7.84293e-09
7.15068e-06
1.01989e-08
7.14719e-06
1.64763e-08
7.14395e-06
2.28223e-08
3.44794e-08
7.14403e-06
7.73188e-06
-5.2232e-08
7.73944e-06
-1.50034e-08
7.74195e-06
-5.17332e-09
7.73422e-06
1.8996e-08
7.73782e-06
3.02689e-09
7.7333e-06
1.08433e-08
7.73109e-06
3.50965e-10
7.73546e-06
-1.27538e-08
7.73232e-06
7.63103e-10
7.73085e-06
-4.96141e-09
7.73234e-06
-3.91382e-09
7.73089e-06
2.91894e-09
7.72935e-06
1.9055e-09
7.7284e-06
5.50107e-09
7.72641e-06
5.57193e-09
7.72454e-06
9.71443e-09
7.7217e-06
1.30453e-08
7.71884e-06
1.93336e-08
7.71592e-06
2.57426e-08
3.57492e-08
7.71465e-06
8.34988e-06
-4.56524e-08
8.35781e-06
-2.29347e-08
8.35823e-06
-5.59573e-09
8.35665e-06
2.0579e-08
8.35457e-06
5.10576e-09
8.35123e-06
1.41842e-08
8.3548e-06
-3.21666e-09
8.34552e-06
-3.4792e-09
8.35517e-06
-8.88658e-09
8.34954e-06
6.73196e-10
8.34744e-06
-1.8134e-09
8.34785e-06
2.51328e-09
8.3463e-06
3.44574e-09
8.34471e-06
7.09605e-09
8.34277e-06
7.50869e-09
8.3409e-06
1.15863e-08
8.33854e-06
1.54061e-08
8.33626e-06
2.16137e-08
8.33467e-06
2.73305e-08
3.53915e-08
8.33503e-06
9.01761e-06
-3.96141e-08
9.02131e-06
-2.66389e-08
9.0241e-06
-8.38626e-09
9.02701e-06
1.76729e-08
9.01673e-06
1.53833e-08
9.02335e-06
7.56745e-09
9.01811e-06
2.02485e-09
9.01429e-06
3.38163e-10
9.01615e-06
-1.07427e-08
9.01674e-06
7.63252e-11
9.01317e-06
1.75695e-09
9.01291e-06
2.77727e-09
9.01205e-06
4.30755e-09
9.01071e-06
8.42822e-09
9.00861e-06
9.61706e-09
9.0069e-06
1.32889e-08
9.00491e-06
1.73999e-08
9.00334e-06
2.31822e-08
9.00217e-06
2.85008e-08
3.5506e-08
9.00206e-06
9.73859e-06
-3.41012e-08
9.73833e-06
-2.63786e-08
9.74335e-06
-1.34046e-08
9.74737e-06
1.365e-08
9.74098e-06
2.17772e-08
9.74192e-06
6.62535e-09
9.73866e-06
5.28292e-09
9.73677e-06
2.2323e-09
9.7329e-06
-6.87232e-09
9.73513e-06
-2.16242e-09
9.73381e-06
3.07781e-09
9.73188e-06
4.7118e-09
9.73084e-06
5.35179e-09
9.72988e-06
9.388e-09
9.72795e-06
1.15434e-08
9.7263e-06
1.49355e-08
9.7247e-06
1.90055e-08
9.72366e-06
2.42202e-08
9.72326e-06
2.88981e-08
3.42357e-08
9.72453e-06
1.05169e-05
-2.89081e-08
1.05158e-05
-2.5325e-08
1.0518e-05
-1.56122e-08
1.05243e-05
7.38979e-09
1.0523e-05
2.30987e-08
1.05164e-05
1.31548e-08
1.05185e-05
3.25747e-09
1.05158e-05
4.87273e-09
1.05101e-05
-1.1005e-09
1.05102e-05
-2.29867e-09
1.05109e-05
2.3997e-09
1.05091e-05
6.50318e-09
1.05073e-05
7.11797e-09
1.05064e-05
1.02835e-08
1.05049e-05
1.30264e-08
1.05035e-05
1.6406e-08
1.05022e-05
2.02368e-08
1.05016e-05
2.482e-08
1.05014e-05
2.91312e-08
3.3564e-08
1.05021e-05
1.13574e-05
-2.41375e-08
1.1355e-05
-2.29239e-08
1.13565e-05
-1.71195e-08
1.13613e-05
2.61593e-09
1.13659e-05
1.84471e-08
1.13569e-05
2.22044e-08
1.13567e-05
3.43998e-09
1.13564e-05
5.18477e-09
1.13513e-05
4.02798e-09
1.13482e-05
7.99242e-10
1.13487e-05
1.90456e-09
1.13482e-05
6.94059e-09
1.13465e-05
8.87947e-09
1.13452e-05
1.15277e-08
1.13441e-05
1.41534e-08
1.13429e-05
1.76123e-08
1.1342e-05
2.10933e-08
1.13417e-05
2.50993e-08
1.13418e-05
2.90274e-08
3.40569e-08
1.13414e-05
1.22648e-05
-1.95947e-08
1.2264e-05
-2.2118e-08
1.22605e-05
-1.36266e-08
1.2266e-05
-2.88918e-09
1.22717e-05
1.27802e-08
1.22688e-05
2.50832e-08
1.22612e-05
1.10579e-08
1.22614e-05
4.9531e-09
1.22592e-05
6.24417e-09
1.22551e-05
4.90341e-09
1.22534e-05
3.54904e-09
1.22536e-05
6.78364e-09
1.22526e-05
9.84168e-09
1.22514e-05
1.27579e-08
1.22504e-05
1.51996e-08
1.22495e-05
1.84311e-08
1.2249e-05
2.16092e-08
1.22491e-05
2.50487e-08
1.22497e-05
2.83874e-08
3.1271e-08
1.22525e-05
1.32448e-05
-1.55002e-08
1.32438e-05
-2.10711e-08
1.32401e-05
-9.89701e-09
1.32428e-05
-5.64216e-09
1.32481e-05
7.51506e-09
1.3251e-05
2.21804e-08
1.32421e-05
1.99687e-08
1.3238e-05
9.02722e-09
1.32377e-05
6.58706e-09
1.32349e-05
7.67857e-09
1.3232e-05
6.45446e-09
1.32312e-05
7.57041e-09
1.32309e-05
1.01623e-08
1.32301e-05
1.34936e-08
1.32292e-05
1.60877e-08
1.32287e-05
1.89594e-08
1.32286e-05
2.17548e-08
1.32289e-05
2.47013e-08
1.32298e-05
2.75425e-08
3.11427e-08
1.32299e-05
1.43034e-05
-1.21636e-08
1.43008e-05
-1.84715e-08
1.42998e-05
-8.8871e-09
1.42972e-05
-3.08344e-09
1.43022e-05
2.5163e-09
1.43076e-05
1.67871e-08
1.43031e-05
2.44705e-08
1.42952e-05
1.69158e-08
1.42929e-05
8.96911e-09
1.42919e-05
8.64496e-09
1.42894e-05
8.8987e-09
1.42877e-05
9.3468e-09
1.42872e-05
1.06666e-08
1.42869e-05
1.37126e-08
1.42865e-05
1.65393e-08
1.42863e-05
1.91903e-08
1.42865e-05
2.15407e-08
1.42871e-05
2.40285e-08
1.42884e-05
2.62508e-08
2.80211e-08
1.42916e-05
1.54463e-05
-9.49322e-09
1.54427e-05
-1.48894e-08
1.54427e-05
-8.80555e-09
1.5439e-05
5.65417e-10
1.54405e-05
1.00099e-09
1.54461e-05
1.11753e-08
1.5447e-05
2.35911e-08
1.54398e-05
2.41798e-08
1.54338e-05
1.49699e-08
1.54321e-05
1.03193e-08
1.54309e-05
1.00931e-08
1.54292e-05
1.10439e-08
1.54282e-05
1.16632e-08
1.54281e-05
1.38051e-08
1.54282e-05
1.64686e-08
1.54283e-05
1.90257e-08
1.54289e-05
2.09767e-08
1.54299e-05
2.30272e-08
1.54314e-05
2.47833e-08
2.71886e-08
1.54322e-05
1.66802e-05
-7.27923e-09
1.66764e-05
-1.10842e-08
1.66752e-05
-7.56212e-09
1.6674e-05
1.71702e-09
1.66712e-05
3.83089e-09
1.66741e-05
8.32285e-09
1.66786e-05
1.90843e-08
1.66754e-05
2.73966e-08
1.66681e-05
2.22503e-08
1.6664e-05
1.43753e-08
1.66628e-05
1.13574e-08
1.66619e-05
1.19291e-08
1.66609e-05
1.26633e-08
1.66607e-05
1.40035e-08
1.6661e-05
1.61024e-08
1.66617e-05
1.8393e-08
1.66626e-05
2.00488e-08
1.6664e-05
2.16618e-08
1.66658e-05
2.2934e-08
2.38e-08
1.66692e-05
1.80125e-05
-5.40708e-09
1.80087e-05
-7.30489e-09
1.80063e-05
-5.10816e-09
1.80064e-05
1.61489e-09
1.80028e-05
7.45432e-09
1.80015e-05
9.56731e-09
1.80053e-05
1.53575e-08
1.8007e-05
2.56047e-08
1.8002e-05
2.73057e-08
1.79959e-05
2.04538e-08
1.79932e-05
1.40478e-08
1.79925e-05
1.26374e-08
1.79921e-05
1.31259e-08
1.79919e-05
1.41657e-08
1.79924e-05
1.55641e-08
1.79935e-05
1.73683e-08
1.79947e-05
1.87613e-08
1.79965e-05
1.99357e-08
1.79986e-05
2.08437e-08
2.22301e-08
1.80001e-05
1.9451e-05
-3.74513e-09
1.94471e-05
-3.39941e-09
1.94445e-05
-2.52097e-09
1.94436e-05
2.5621e-09
1.94417e-05
9.31152e-09
1.94377e-05
1.36025e-08
1.94379e-05
1.5177e-08
1.94414e-05
2.20719e-08
1.94405e-05
2.81811e-08
1.94354e-05
2.55381e-08
1.94309e-05
1.85463e-08
1.94295e-05
1.41218e-08
1.94293e-05
1.33122e-08
1.94295e-05
1.39183e-08
1.94302e-05
1.48509e-08
1.94315e-05
1.60594e-08
1.94332e-05
1.71116e-08
1.94353e-05
1.78642e-08
1.94377e-05
1.83982e-08
1.93423e-08
1.94406e-05
2.10041e-05
-2.01836e-09
2.10017e-05
-9.78454e-10
2.09973e-05
1.80935e-09
2.09956e-05
4.32441e-09
2.09944e-05
1.0506e-08
2.09907e-05
1.72706e-08
2.09874e-05
1.84928e-08
2.0989e-05
2.04917e-08
2.09912e-05
2.59093e-08
2.09889e-05
2.79078e-08
2.09845e-05
2.28668e-08
2.09817e-05
1.70087e-08
2.09811e-05
1.38241e-08
2.09816e-05
1.34359e-08
2.09827e-05
1.38008e-08
2.09843e-05
1.44833e-08
2.09863e-05
1.50629e-08
2.09887e-05
1.54985e-08
2.09914e-05
1.56405e-08
1.61936e-08
2.09946e-05
2.26812e-05
-2.74285e-10
2.26795e-05
7.1343e-10
2.26748e-05
6.45306e-09
2.26718e-05
7.32543e-09
2.26704e-05
1.19903e-08
2.26676e-05
2.0009e-08
2.26633e-05
2.28279e-08
2.26618e-05
2.19503e-08
2.26636e-05
2.4105e-08
2.26643e-05
2.71939e-08
2.26616e-05
2.55838e-08
2.26586e-05
2.00422e-08
2.26571e-05
1.52881e-08
2.26576e-05
1.29781e-08
2.26588e-05
1.2559e-08
2.26607e-05
1.26055e-08
2.26631e-05
1.26908e-08
2.26659e-05
1.27216e-08
2.26689e-05
1.26157e-08
1.21929e-08
2.26729e-05
2.44925e-05
1.13265e-09
2.449e-05
3.28824e-09
2.44869e-05
9.55358e-09
2.44826e-05
1.16306e-08
2.448e-05
1.45367e-08
2.44778e-05
2.22095e-08
2.44742e-05
2.64734e-08
2.44707e-05
2.54367e-08
2.44704e-05
2.43564e-08
2.44717e-05
2.59323e-08
2.44712e-05
2.60598e-08
2.4469e-05
2.22611e-08
2.44673e-05
1.69844e-08
2.44671e-05
1.32002e-08
2.44684e-05
1.11906e-08
2.44705e-05
1.05298e-08
2.44732e-05
1.00364e-08
2.44763e-05
9.57359e-09
2.44799e-05
9.08849e-09
8.72691e-09
2.44833e-05
2.64484e-05
2.34538e-09
2.64454e-05
6.24451e-09
2.64429e-05
1.2023e-08
2.64386e-05
1.5984e-08
2.64346e-05
1.85182e-08
2.64323e-05
2.45165e-08
2.64293e-05
2.95016e-08
2.64255e-05
2.92376e-08
2.6423e-05
2.6786e-08
2.64232e-05
2.5782e-08
2.64237e-05
2.55162e-08
2.64229e-05
2.30324e-08
2.64214e-05
1.8539e-08
2.6421e-05
1.36188e-08
2.64218e-05
1.03372e-08
2.6424e-05
8.31233e-09
2.64271e-05
7.00997e-09
2.64306e-05
6.02159e-09
2.64345e-05
5.19183e-09
4.456e-09
2.64388e-05
2.85602e-05
3.496e-09
2.85573e-05
9.11266e-09
2.85547e-05
1.45772e-08
2.85508e-05
1.98888e-08
2.85459e-05
2.34664e-08
2.85429e-05
2.75271e-08
2.85403e-05
3.20721e-08
2.85367e-05
3.28677e-08
2.8533e-05
3.04629e-08
2.85312e-05
2.76245e-08
2.85313e-05
2.53474e-08
2.85317e-05
2.26967e-08
2.85311e-05
1.91476e-08
2.85302e-05
1.44436e-08
2.85304e-05
1.01858e-08
2.85319e-05
6.78859e-09
2.85347e-05
4.25283e-09
2.85384e-05
2.26324e-09
2.85429e-05
6.72079e-10
-4.08885e-10
2.85478e-05
3.08404e-05
4.74638e-09
3.08376e-05
1.19104e-08
3.08353e-05
1.6874e-08
3.08314e-05
2.38227e-08
3.08265e-05
2.83869e-08
3.08224e-05
3.15918e-08
3.08197e-05
3.4739e-08
3.08167e-05
3.58974e-08
3.08125e-05
3.4635e-08
3.08088e-05
3.14147e-08
3.08066e-05
2.74692e-08
3.08063e-05
2.30803e-08
3.08068e-05
1.8615e-08
3.08076e-05
1.36623e-08
3.08088e-05
8.99774e-09
3.08106e-05
4.98607e-09
3.0813e-05
1.84955e-09
3.08161e-05
-9.10605e-10
3.08204e-05
-3.59319e-09
-5.48063e-09
3.08255e-05
3.33025e-05
6.32885e-09
3.33006e-05
1.3879e-08
3.32976e-05
1.98085e-08
3.32941e-05
2.73478e-08
3.32895e-05
3.29843e-08
3.32849e-05
3.61659e-08
3.3281e-05
3.86282e-08
3.3278e-05
3.89359e-08
3.32748e-05
3.78444e-08
3.32713e-05
3.49368e-08
3.32671e-05
3.16466e-08
3.32633e-05
2.68646e-08
3.32602e-05
2.1679e-08
3.32583e-05
1.56234e-08
3.32578e-05
9.49764e-09
3.32596e-05
3.15206e-09
3.32633e-05
-1.84291e-09
3.32679e-05
-5.46816e-09
3.32729e-05
-8.6264e-09
-1.11713e-08
3.32786e-05
3.5961e-05
8.49414e-09
3.59605e-05
1.4319e-08
3.59563e-05
2.40684e-08
3.59531e-05
3.05137e-08
3.59492e-05
3.69179e-08
3.59455e-05
3.98027e-08
3.59405e-05
4.36773e-08
3.59349e-05
4.44679e-08
3.59302e-05
4.25746e-08
3.59265e-05
3.86534e-08
3.59236e-05
3.45137e-08
3.59217e-05
2.88107e-08
3.59199e-05
2.34307e-08
3.59186e-05
1.70001e-08
3.5917e-05
1.10196e-08
3.59154e-05
4.78104e-09
3.59145e-05
-9.00761e-10
3.59176e-05
-8.6172e-09
3.59216e-05
-1.26169e-08
-1.6648e-08
3.59271e-05
3.88319e-05
1.10373e-08
3.88327e-05
1.35732e-08
3.88274e-05
2.93578e-08
3.88247e-05
3.31989e-08
3.882e-05
4.157e-08
3.88182e-05
4.16757e-08
3.88165e-05
4.53855e-08
3.88132e-05
4.77136e-08
3.88054e-05
5.04106e-08
3.87962e-05
4.78259e-08
3.87854e-05
4.53345e-08
3.87754e-05
3.87956e-08
3.87661e-05
3.27141e-08
3.87592e-05
2.38936e-08
3.87546e-05
1.56183e-08
3.8754e-05
5.42436e-09
3.87559e-05
-2.83086e-09
3.87601e-05
-1.28223e-08
3.87695e-05
-2.20016e-08
-3.07155e-08
3.87836e-05
4.19314e-05
1.47053e-08
4.19355e-05
9.45155e-09
4.19265e-05
3.83272e-08
4.19285e-05
3.1229e-08
4.1919e-05
5.10639e-08
4.19164e-05
4.42273e-08
4.19083e-05
5.34873e-08
4.19112e-05
4.48713e-08
4.1911e-05
5.06101e-08
4.19132e-05
4.55859e-08
4.19097e-05
4.89037e-08
4.19046e-05
4.38286e-08
4.18941e-05
4.32741e-08
4.18821e-05
3.58668e-08
4.18661e-05
3.15879e-08
4.18487e-05
2.28018e-08
4.18289e-05
1.70007e-08
4.18086e-05
7.49421e-09
4.17927e-05
-6.11123e-09
-2.24799e-08
4.17845e-05
4.52827e-05
1.51504e-08
4.52785e-05
1.3637e-08
4.5277e-05
3.98449e-08
4.52746e-05
3.36171e-08
4.52768e-05
4.88784e-08
4.52781e-05
4.29821e-08
4.52729e-05
5.85985e-08
4.52628e-05
5.50109e-08
4.52495e-05
6.39059e-08
4.52344e-05
6.06976e-08
4.52165e-05
6.68099e-08
4.51979e-05
6.24514e-08
4.51788e-05
6.23424e-08
4.51615e-05
5.31343e-08
4.51465e-05
4.65886e-08
4.51359e-05
3.34575e-08
4.51355e-05
1.73851e-08
4.51384e-05
4.57752e-09
4.5149e-05
-1.66719e-08
-5.68835e-08
4.51834e-05
4.89016e-05
1.21805e-08
4.8894e-05
2.1228e-08
4.88962e-05
3.75862e-08
4.88816e-05
4.82354e-08
4.88754e-05
5.5108e-08
4.88666e-05
5.17518e-08
4.88745e-05
5.07434e-08
4.88838e-05
4.56553e-08
4.89071e-05
4.06006e-08
4.8935e-05
3.28796e-08
4.89764e-05
2.53608e-08
4.90224e-05
1.64825e-08
4.9076e-05
8.67348e-09
4.91286e-05
5.87642e-10
4.91853e-05
-1.01633e-08
4.92364e-05
-1.75883e-08
4.9271e-05
-1.72054e-08
4.92955e-05
-1.99854e-08
4.93005e-05
-2.16398e-08
-1.9204e-08
4.92628e-05
5.28025e-05
1.24363e-08
5.28015e-05
2.21836e-08
5.28035e-05
3.55886e-08
5.28103e-05
4.14274e-08
5.28157e-05
4.97078e-08
5.28075e-05
5.99074e-08
5.27904e-05
6.7888e-08
5.27663e-05
6.97254e-08
5.27365e-05
7.04298e-08
5.27044e-05
6.49661e-08
5.26725e-05
5.72736e-08
5.26441e-05
4.48509e-08
5.26208e-05
3.19918e-08
5.26043e-05
1.7122e-08
5.25916e-05
2.48951e-09
5.25856e-05
-1.15482e-08
5.25955e-05
-2.70942e-08
5.26191e-05
-4.35748e-08
5.26578e-05
-6.03712e-08
-7.95616e-08
5.27182e-05
5.70204e-05
1.05417e-08
5.70147e-05
2.79161e-08
5.70078e-05
4.24735e-08
5.69975e-05
5.17311e-08
5.69931e-05
5.40972e-08
5.70006e-05
5.23645e-08
5.70197e-05
4.87869e-08
5.70465e-05
4.29782e-08
5.70811e-05
3.58589e-08
5.71189e-05
2.71175e-08
5.71578e-05
1.8404e-08
5.71926e-05
1.00198e-08
5.72218e-05
2.79384e-09
5.72473e-05
-8.36249e-09
5.72668e-05
-1.70376e-08
5.72735e-05
-1.82684e-08
5.72683e-05
-2.1855e-08
5.72491e-05
-2.43413e-08
5.72145e-05
-2.58157e-08
-2.20781e-08
5.7157e-05
6.15728e-05
8.66164e-09
6.15795e-05
2.12241e-08
6.15903e-05
3.1676e-08
6.16004e-05
4.15961e-08
6.15947e-05
5.98222e-08
6.15758e-05
7.12876e-08
6.15435e-05
8.10665e-08
6.15014e-05
8.51041e-08
6.14531e-05
8.41044e-08
6.14045e-05
7.57033e-08
6.13591e-05
6.38582e-08
6.13202e-05
4.89508e-08
6.12896e-05
3.33852e-08
6.12649e-05
1.63512e-08
6.12485e-05
-7.16283e-10
6.12491e-05
-1.87935e-08
6.12635e-05
-3.62987e-08
6.12929e-05
-5.37677e-08
6.13378e-05
-7.07227e-08
-8.89203e-08
6.14047e-05
6.64851e-05
1.0351e-08
6.64843e-05
2.20096e-08
6.64807e-05
3.52763e-08
6.64797e-05
4.26027e-08
6.64896e-05
4.99665e-08
6.65058e-05
5.50532e-08
6.65268e-05
6.00441e-08
6.65514e-05
6.05683e-08
6.65765e-05
5.90062e-08
6.65985e-05
5.36669e-08
6.66151e-05
4.72651e-08
6.66253e-05
3.87212e-08
6.6629e-05
2.97534e-08
6.66259e-05
1.93788e-08
6.66139e-05
1.12725e-08
6.6598e-05
-2.88982e-09
6.65742e-05
-1.24212e-08
6.65415e-05
-2.11267e-08
6.64985e-05
-2.77375e-08
-3.21939e-08
6.64418e-05
7.17956e-05
9.92605e-09
7.18147e-05
2.9212e-09
7.18275e-05
2.2402e-08
7.1842e-05
2.81101e-08
7.18381e-05
5.39562e-08
7.18255e-05
6.75555e-08
7.17924e-05
9.31601e-08
7.1748e-05
1.04976e-07
7.16862e-05
1.20805e-07
7.16166e-05
1.23272e-07
7.15384e-05
1.25441e-07
7.14616e-05
1.1553e-07
7.13874e-05
1.03989e-07
7.13242e-05
8.25414e-08
7.12799e-05
5.56141e-08
7.12442e-05
3.27758e-08
7.1219e-05
1.28021e-08
7.12116e-05
-1.3765e-08
7.12328e-05
-4.89059e-08
-8.93347e-08
7.129e-05
7.7522e-05
7.75366e-05
7.75453e-05
7.75703e-05
7.75946e-05
7.76264e-05
7.76509e-05
7.76718e-05
7.76778e-05
7.76728e-05
7.76508e-05
7.76169e-05
7.75675e-05
7.7498e-05
7.74114e-05
7.73261e-05
7.72475e-05
7.7181e-05
7.7128e-05
7.70733e-05
3.81863e-06
2.7938e-08
3.78374e-06
3.48875e-08
3.74685e-06
3.6893e-08
3.70362e-06
4.32333e-08
3.65456e-06
4.90556e-08
3.60329e-06
5.12754e-08
3.55301e-06
5.02802e-08
3.50515e-06
4.78521e-08
3.45929e-06
4.58653e-08
3.41399e-06
4.52957e-08
3.36805e-06
4.59452e-08
3.32117e-06
4.68745e-08
3.27352e-06
4.76575e-08
3.2252e-06
4.8318e-08
3.1763e-06
4.8901e-08
3.12685e-06
4.94448e-08
3.07688e-06
4.99688e-08
3.02639e-06
5.04886e-08
2.9754e-06
5.09974e-08
2.92391e-06
5.14823e-08
2.87198e-06
5.19353e-08
2.81962e-06
5.23558e-08
2.76687e-06
5.27534e-08
2.71373e-06
5.31431e-08
2.66019e-06
5.35347e-08
2.60625e-06
5.39438e-08
2.55189e-06
5.43575e-08
2.4971e-06
5.47912e-08
2.44189e-06
5.52124e-08
2.38625e-06
5.56345e-08
2.33023e-06
5.60267e-08
2.27384e-06
5.63863e-08
2.21712e-06
5.67154e-08
2.16014e-06
5.6987e-08
2.10289e-06
5.72512e-08
2.04541e-06
5.74724e-08
1.9877e-06
5.77115e-08
1.92978e-06
5.79232e-08
1.87165e-06
5.81258e-08
1.81336e-06
5.82917e-08
1.75498e-06
5.83779e-08
1.6966e-06
5.83791e-08
1.63843e-06
5.8179e-08
1.58062e-06
5.78022e-08
1.52349e-06
5.71373e-08
1.46722e-06
5.62664e-08
1.412e-06
5.52205e-08
1.35807e-06
5.39333e-08
1.30561e-06
5.24513e-08
1.25497e-06
5.06415e-08
1.20654e-06
4.843e-08
1.16086e-06
4.5688e-08
1.11838e-06
4.24739e-08
1.07963e-06
3.87471e-08
1.04512e-06
3.45114e-08
1.0149e-06
3.02262e-08
9.88883e-07
2.60135e-08
9.66889e-07
2.19944e-08
9.48649e-07
1.82395e-08
9.33853e-07
1.47959e-08
9.21969e-07
1.18839e-08
9.12462e-07
9.50778e-09
9.04938e-07
7.52355e-09
8.98988e-07
5.95021e-09
8.94355e-07
4.63246e-09
8.90816e-07
3.53996e-09
8.8803e-07
2.78562e-09
8.85639e-07
2.3911e-09
8.83288e-07
2.35119e-09
8.80661e-07
2.62627e-09
8.77726e-07
2.93564e-09
8.7462e-07
3.10603e-09
8.7158e-07
3.03918e-09
8.68797e-07
2.78329e-09
8.66179e-07
2.61814e-09
8.63374e-07
2.8053e-09
8.6003e-07
3.34383e-09
8.55897e-07
4.13308e-09
8.51055e-07
4.84196e-09
8.45913e-07
5.14219e-09
8.40951e-07
4.96188e-09
8.36482e-07
4.46894e-09
8.32434e-07
4.0475e-09
8.28418e-07
4.01609e-09
8.24183e-07
4.23571e-09
8.19706e-07
4.47625e-09
8.15111e-07
4.59544e-09
8.1068e-07
4.43096e-09
8.06582e-07
4.09797e-09
8.02705e-07
3.87649e-09
7.98861e-07
3.84421e-09
7.94961e-07
3.90052e-09
7.91037e-07
3.92379e-09
7.87298e-07
3.73893e-09
7.8383e-07
3.46815e-09
7.80556e-07
3.27396e-09
7.77381e-07
3.17491e-09
7.74311e-07
3.07041e-09
7.71372e-07
2.93816e-09
7.68676e-07
2.6966e-09
7.66101e-07
2.57511e-09
7.6341e-07
2.69099e-09
7.60644e-07
2.76585e-09
7.58135e-07
2.50871e-09
7.55889e-07
2.24659e-09
7.53678e-07
2.21102e-09
7.51483e-07
2.19474e-09
7.49483e-07
1.99998e-09
7.47698e-07
1.78432e-09
7.46026e-07
1.67219e-09
7.44437e-07
1.58968e-09
7.42965e-07
1.47166e-09
7.41633e-07
1.33176e-09
7.40387e-07
1.24615e-09
7.39208e-07
1.17952e-09
7.38123e-07
1.08414e-09
7.37185e-07
9.38556e-10
7.36344e-07
8.41236e-10
7.35569e-07
7.7457e-10
7.34879e-07
6.8988e-10
7.3429e-07
5.89112e-10
7.33754e-07
5.35595e-10
7.33251e-07
5.0383e-10
7.32822e-07
4.28719e-10
7.32482e-07
3.39493e-10
7.32208e-07
2.74418e-10
7.31963e-07
2.44726e-10
7.31764e-07
1.9949e-10
7.31613e-07
1.50873e-10
7.31508e-07
1.04752e-10
7.31436e-07
7.19991e-11
7.31394e-07
4.25481e-11
7.31383e-07
1.00893e-11
7.31394e-07
-1.04244e-11
7.31429e-07
-3.47693e-11
7.31472e-07
-4.37794e-11
7.31539e-07
-6.66402e-11
7.31614e-07
-7.47777e-11
7.31709e-07
-9.5525e-11
7.31807e-07
-9.72851e-11
7.31912e-07
-1.0552e-10
7.32007e-07
-9.52265e-11
7.32102e-07
-9.50468e-11
7.32179e-07
-7.69707e-11
7.32257e-07
-7.76057e-11
7.32314e-07
-5.70956e-11
7.32382e-07
-6.82155e-11
7.32428e-07
-4.60267e-11
7.32496e-07
-6.74744e-11
7.32538e-07
-4.16795e-11
7.32606e-07
-6.82758e-11
7.32646e-07
-4.0206e-11
7.32711e-07
-6.52689e-11
7.32751e-07
-4.00248e-11
7.3281e-07
-5.88737e-11
7.32849e-07
-3.84384e-11
7.329e-07
-5.10399e-11
7.32932e-07
-3.26584e-11
7.32978e-07
-4.58793e-11
7.33e-07
-2.14713e-11
7.33046e-07
-4.6237e-11
7.33052e-07
-5.97758e-12
7.33102e-07
-5.03333e-11
7.33092e-07
1.04506e-11
7.33144e-07
-5.22485e-11
7.33122e-07
2.24253e-11
7.33169e-07
-4.70486e-11
7.33144e-07
2.51163e-11
7.33177e-07
-3.38477e-11
7.33159e-07
1.88227e-11
7.33176e-07
-1.71066e-11
7.33165e-07
1.07456e-11
7.3317e-07
-5.55444e-12
7.33159e-07
1.19121e-11
7.33167e-07
-7.96717e-12
7.33137e-07
2.904e-11
7.33162e-07
-2.42641e-11
7.33106e-07
5.60939e-11
7.33146e-07
-4.02669e-11
7.3307e-07
7.57076e-11
7.33109e-07
-3.84551e-11
7.33028e-07
8.03723e-11
7.3305e-07
-2.21273e-11
7.32959e-07
9.15138e-11
7.32977e-07
-1.80949e-11
7.32838e-07
1.39208e-10
7.32869e-07
-3.09933e-11
7.32656e-07
2.12743e-10
7.32666e-07
-1.02503e-11
7.32382e-07
2.83906e-10
7.32298e-07
8.39927e-11
7.31884e-07
4.14588e-10
7.31637e-07
2.46766e-10
7.309e-07
7.3725e-10
7.30251e-07
6.48418e-10
7.28929e-07
1.32286e-09
7.26906e-07
2.02217e-09
7.24489e-07
2.41751e-09
7.18739e-07
5.75008e-09
1.47047e-08
4.16029e-06
2.68537e-08
4.17783e-06
1.73454e-08
4.18892e-06
2.57993e-08
4.18972e-06
4.24338e-08
4.18369e-06
5.50842e-08
4.17662e-06
5.83516e-08
4.17084e-06
5.60538e-08
4.16695e-06
5.17431e-08
4.16405e-06
4.87644e-08
4.16104e-06
4.83072e-08
4.15723e-06
4.97555e-08
4.15231e-06
5.18013e-08
4.14634e-06
5.3623e-08
4.13957e-06
5.50907e-08
4.13215e-06
5.63233e-08
4.12413e-06
5.74582e-08
4.11551e-06
5.85896e-08
4.10622e-06
5.97792e-08
4.09623e-06
6.09895e-08
4.08549e-06
6.22255e-08
4.074e-06
6.34214e-08
4.06175e-06
6.4602e-08
4.04877e-06
6.5741e-08
4.03503e-06
6.68767e-08
4.02054e-06
6.80235e-08
4.0053e-06
6.91916e-08
3.98924e-06
7.04081e-08
3.97239e-06
7.16436e-08
3.95468e-06
7.29256e-08
3.93611e-06
7.42022e-08
3.91664e-06
7.55009e-08
3.89626e-06
7.67643e-08
3.87495e-06
7.8024e-08
3.85269e-06
7.92436e-08
3.8295e-06
8.04482e-08
3.80531e-06
8.1658e-08
3.78017e-06
8.28548e-08
3.75401e-06
8.40848e-08
3.72687e-06
8.52651e-08
3.69872e-06
8.64351e-08
3.66961e-06
8.74943e-08
3.63956e-06
8.84297e-08
3.60859e-06
8.91414e-08
3.57684e-06
8.9559e-08
3.5443e-06
8.96709e-08
3.51116e-06
8.94117e-08
3.47742e-06
8.89552e-08
3.44322e-06
8.8136e-08
3.40871e-06
8.69668e-08
3.37394e-06
8.54035e-08
3.33922e-06
8.31555e-08
3.30468e-06
8.02217e-08
3.27064e-06
7.65147e-08
3.23739e-06
7.1998e-08
3.20517e-06
6.67307e-08
3.17434e-06
6.10619e-08
3.14495e-06
5.54061e-08
3.11707e-06
4.98664e-08
3.09069e-06
4.46222e-08
3.0657e-06
3.97825e-08
3.04214e-06
3.54517e-08
3.0197e-06
3.19438e-08
2.99828e-06
2.8939e-08
2.97786e-06
2.63784e-08
2.9582e-06
2.4289e-08
2.93926e-06
2.24791e-08
2.92089e-06
2.1157e-08
2.90287e-06
2.04134e-08
2.88506e-06
2.01625e-08
2.86734e-06
2.03451e-08
2.84969e-06
2.05813e-08
2.83213e-06
2.06666e-08
2.81484e-06
2.03271e-08
2.79793e-06
1.96981e-08
2.78129e-06
1.92589e-08
2.76478e-06
1.93141e-08
2.74815e-06
1.99702e-08
2.73124e-06
2.10495e-08
2.71408e-06
2.20009e-08
2.69673e-06
2.24873e-08
2.67952e-06
2.21774e-08
2.66273e-06
2.12556e-08
2.64626e-06
2.05158e-08
2.63001e-06
2.02633e-08
2.61398e-06
2.02741e-08
2.598e-06
2.04565e-08
2.58216e-06
2.0428e-08
2.56669e-06
1.99048e-08
2.55154e-06
1.9244e-08
2.53664e-06
1.87837e-08
2.52185e-06
1.86273e-08
2.50704e-06
1.87082e-08
2.4923e-06
1.86736e-08
2.47788e-06
1.81539e-08
2.46396e-06
1.73879e-08
2.4506e-06
1.66329e-08
2.43779e-06
1.59865e-08
2.42554e-06
1.53235e-08
2.41387e-06
1.46064e-08
2.40267e-06
1.38938e-08
2.3916e-06
1.36426e-08
2.38054e-06
1.37553e-08
2.36968e-06
1.36207e-08
2.35927e-06
1.2924e-08
2.34926e-06
1.22599e-08
2.33958e-06
1.18903e-08
2.33028e-06
1.14906e-08
2.32147e-06
1.08144e-08
2.31313e-06
1.01255e-08
2.30522e-06
9.58113e-09
2.29774e-06
9.06373e-09
2.29072e-06
8.49223e-09
2.28413e-06
7.92002e-09
2.27793e-06
7.45139e-09
2.2721e-06
7.00677e-09
2.26667e-06
6.51931e-09
2.26162e-06
5.98433e-09
2.25692e-06
5.54256e-09
2.25255e-06
5.14593e-09
2.24851e-06
4.7279e-09
2.24478e-06
4.31457e-09
2.24133e-06
3.99185e-09
2.23813e-06
3.70181e-09
2.23522e-06
3.33694e-09
2.2326e-06
2.96072e-09
2.23024e-06
2.63394e-09
2.22811e-06
2.37897e-09
2.2262e-06
2.1063e-09
2.22451e-06
1.84102e-09
2.22303e-06
1.58379e-09
2.22174e-06
1.35757e-09
2.22064e-06
1.14329e-09
2.21971e-06
9.39452e-10
2.21894e-06
7.66178e-10
2.2183e-06
6.00118e-10
2.2178e-06
4.62514e-10
2.21742e-06
3.05727e-10
2.21718e-06
1.73374e-10
2.21705e-06
2.91691e-11
2.21703e-06
-7.07315e-11
2.21708e-06
-1.56873e-10
2.21717e-06
-1.92188e-10
2.2173e-06
-2.17573e-10
2.21742e-06
-2.02182e-10
2.21754e-06
-2.01031e-10
2.21766e-06
-1.70718e-10
2.21777e-06
-1.84257e-10
2.21789e-06
-1.57709e-10
2.21801e-06
-1.96289e-10
2.21814e-06
-1.70264e-10
2.2183e-06
-2.2366e-10
2.21845e-06
-1.92441e-10
2.21863e-06
-2.45668e-10
2.2188e-06
-2.12202e-10
2.219e-06
-2.53929e-10
2.21918e-06
-2.20393e-10
2.21938e-06
-2.47419e-10
2.21956e-06
-2.12921e-10
2.21975e-06
-2.33821e-10
2.21991e-06
-1.88781e-10
2.22009e-06
-2.20604e-10
2.22023e-06
-1.47936e-10
2.22039e-06
-2.06712e-10
2.22049e-06
-9.4897e-11
2.22062e-06
-1.84347e-10
2.22069e-06
-4.33971e-11
2.22079e-06
-1.48651e-10
2.22083e-06
-1.02068e-11
2.22089e-06
-1.01554e-10
2.22091e-06
3.57917e-13
2.22095e-06
-5.40354e-11
2.22096e-06
1.44789e-12
2.22097e-06
-2.12399e-11
2.22097e-06
1.15102e-11
2.22098e-06
-1.19607e-11
2.22097e-06
3.75402e-11
2.22096e-06
-1.88793e-11
2.22095e-06
6.90014e-11
2.22093e-06
-1.982e-11
2.22092e-06
8.5373e-11
2.22087e-06
8.26809e-12
2.22088e-06
7.75477e-11
2.22079e-06
6.85695e-11
2.22081e-06
6.65201e-11
2.22066e-06
1.34572e-10
2.2207e-06
1.00825e-10
2.22049e-06
1.78568e-10
2.22049e-06
2.15006e-10
2.22024e-06
2.31662e-10
2.22012e-06
4.03431e-10
2.21983e-06
3.81743e-10
2.21951e-06
7.33206e-10
2.21906e-06
6.90987e-10
2.21834e-06
1.45776e-09
2.21756e-06
1.42929e-09
2.21595e-06
2.93081e-09
2.21433e-06
3.64642e-09
2.21011e-06
6.63381e-09
2.20643e-06
9.43767e-09
2.88105e-08
4.49444e-06
1.05765e-08
4.51053e-06
1.2559e-09
4.52062e-06
1.57109e-08
4.51745e-06
4.56021e-08
4.51457e-06
5.79615e-08
4.51339e-06
5.95363e-08
4.5142e-06
5.52437e-08
4.51566e-06
5.02811e-08
4.5167e-06
4.77208e-08
4.51754e-06
4.74744e-08
4.51846e-06
4.88323e-08
4.51939e-06
5.08732e-08
4.5201e-06
5.29059e-08
4.52057e-06
5.46206e-08
4.52086e-06
5.60352e-08
4.52102e-06
5.72961e-08
4.52109e-06
5.852e-08
4.52105e-06
5.98249e-08
4.52087e-06
6.11644e-08
4.52053e-06
6.25706e-08
4.52001e-06
6.39424e-08
4.5193e-06
6.53121e-08
4.5184e-06
6.66354e-08
4.51733e-06
6.79445e-08