/*--------------------------------*- C++ -*----------------------------------*\
| =========                 |                                                 |
| \\      /  F ield         | OpenFOAM: The Open Source CFD Toolbox           |
|  \\    /   O peration     | Version:  v2012                                 |
|   \\  /    A nd           | Website:  www.openfoam.com                      |
|    \\/     M anipulation  |                                                 |
\*---------------------------------------------------------------------------*/
FoamFile
{
    version     2.0;
    format      ascii;
    class       volVectorField;
    location    "0.5";
    object      U;
}
// * * * * * * * * * * * * * * * * * * * * * * * * * * * * * * * * * * * * * //

dimensions      [0 1 -1 0 0 0 0];


internalField   nonuniform List<vector> 
8800
(
(0.964822 -0.00117593 0)
(1.03438 0.00100608 0)
(0.968032 -0.000992865 0)
(1.03134 0.000867404 0)
(0.972233 -0.000746844 0)
(1.02849 0.000794895 0)
(0.975712 -0.00063852 0)
(1.02561 0.000594885 0)
(0.978917 -0.000608142 0)
(1.02324 0.000564953 0)
(0.982404 -0.000445709 0)
(1.02157 0.000384572 0)
(0.985776 -0.000426002 0)
(1.02011 0.000229129 0)
(0.988909 -0.000415337 0)
(1.01885 0.000188215 0)
(0.99193 -0.000217787 0)
(1.0182 0.000170094 0)
(0.995188 0.000307614 0)
(1.01912 0.000843715 0)
(0.986802 -0.00109607 0)
(1.01122 0.000799828 0)
(0.989757 -0.000797941 0)
(1.00892 0.000608168 0)
(0.99308 -0.000479184 0)
(1.00708 0.000456338 0)
(0.995411 -0.00028564 0)
(1.00547 0.000218099 0)
(0.997236 -0.000250602 0)
(1.00452 0.000212732 0)
(0.999143 -0.000196378 0)
(1.00431 9.57515e-05 0)
(1.00089 -0.000147435 0)
(1.00437 -5.55882e-05 0)
(1.0024 -0.000160035 0)
(1.00465 -3.68161e-05 0)
(1.0039 0.000167936 0)
(1.00555 0.000360822 0)
(1.0059 0.00103302 0)
(1.00815 0.000891995 0)
(0.997431 -0.00104668 0)
(1.00135 0.000713882 0)
(0.997739 -0.000734167 0)
(1.00064 0.000570192 0)
(0.998634 -0.000470134 0)
(1.00041 0.000473188 0)
(0.999248 -0.000341691 0)
(1.00031 0.000287901 0)
(0.999768 -0.000440096 0)
(1.00053 0.000479738 0)
(1.00052 -0.000584228 0)
(1.00119 0.000565501 0)
(1.00134 -0.000668786 0)
(1.0019 0.000463621 0)
(1.00221 -0.000673938 0)
(1.00272 0.000457746 0)
(1.00333 -0.000434001 0)
(1.00409 0.00165834 0)
(1.00494 0.00188894 0)
(1.00675 0.00500444 0)
(0.99971 -0.00102354 0)
(0.999551 0.000646836 0)
(0.999088 -0.000634658 0)
(0.999292 0.000481501 0)
(0.999216 -0.000341809 0)
(0.999405 0.00030816 0)
(0.999477 -0.000141898 0)
(0.99964 2.76918e-05 0)
(0.999832 -0.000129945 0)
(1.00001 3.15774e-05 0)
(1.00038 -0.000183583 0)
(1.00069 -3.78429e-06 0)
(1.00102 -0.00020811 0)
(1.0014 -5.0814e-05 0)
(1.0018 -0.000133596 0)
(1.00223 7.77778e-05 0)
(1.00303 -6.68945e-05 0)
(1.00397 0.000167069 0)
(1.00522 0.000233004 0)
(1.00625 0.00109061 0)
(0.999984 -0.000839645 0)
(0.999401 0.000382273 0)
(0.999223 -0.000361677 0)
(0.999193 0.000238831 0)
(0.999224 -0.00010164 0)
(0.999343 6.5717e-05 0)
(0.999455 5.44033e-05 0)
(0.999627 -0.000241417 0)
(0.999804 0.000167442 0)
(0.999997 -0.000412532 0)
(1.00032 0.000321745 0)
(1.00067 -0.000540591 0)
(1.00095 0.000299846 0)
(1.00135 -0.000494365 0)
(1.00173 0.000357438 0)
(1.00216 -0.000396129 0)
(1.00277 0.000382518 0)
(1.00355 -0.00114933 0)
(1.00453 -0.000551868 0)
(1.0067 -0.00165292 0)
(1.00001 -0.000954186 0)
(0.999403 0.000492438 0)
(0.999254 -0.00047401 0)
(0.999193 0.000412181 0)
(0.999242 -0.000260158 0)
(0.999334 0.00034205 0)
(0.999464 -0.000289438 0)
(0.999627 0.000235777 0)
(0.999826 -0.000421769 0)
(1.00001 0.000198677 0)
(1.00034 -0.000263426 0)
(1.00066 0.000115417 0)
(1.00096 -0.000274408 0)
(1.00134 0.000217337 0)
(1.00172 -0.000249348 0)
(1.00216 0.000258655 0)
(1.00276 -0.000218189 0)
(1.00372 0.000258251 0)
(1.00505 0.000449966 0)
(1.00762 0.00252914 0)
(1.00001 -0.000663986 0)
(0.999438 9.69446e-05 0)
(0.999259 -3.25351e-05 0)
(0.999219 -3.68485e-05 0)
(0.999248 0.000172468 0)
(0.999353 -0.000151562 0)
(0.999477 9.22784e-05 0)
(0.999632 -0.000139884 0)
(0.999834 -9.26637e-05 0)
(1.00003 -0.000169997 0)
(1.00034 3.3819e-05 0)
(1.00068 -0.000260943 0)
(1.00099 6.03656e-05 0)
(1.00136 -7.93308e-05 0)
(1.00176 0.000111221 0)
(1.00217 2.99809e-05 0)
(1.0028 0.000172205 0)
(1.00371 0.000203703 0)
(1.00514 0.000357812 0)
(1.00783 0.00112005 0)
(1.00001 -0.000793849 0)
(0.999477 0.000199659 0)
(0.999279 -0.00022866 0)
(0.999244 0.000316634 0)
(0.99926 -0.000160307 0)
(0.99936 0.000396275 0)
(0.999492 -0.000425522 0)
(0.999641 0.000319666 0)
(0.999854 -0.000442388 0)
(1.00007 0.000148457 0)
(1.00035 -0.000148945 0)
(1.0007 -2.65165e-05 0)
(1.00102 -0.000146743 0)
(1.00138 0.000170595 0)
(1.00177 -2.89562e-05 0)
(1.00221 0.000200348 0)
(1.00284 0.000168154 0)
(1.0038 0.000430168 0)
(1.00536 0.00074826 0)
(1.00823 0.00170061 0)
(1.00001 -0.000555184 0)
(0.999513 -0.000103773 0)
(0.99931 8.26992e-06 0)
(0.999259 7.35602e-05 0)
(0.999298 9.44574e-05 0)
(0.999357 0.000145462 0)
(0.999513 -0.000155704 0)
(0.999661 3.04793e-05 0)
(0.999855 -0.000156978 0)
(1.00011 -7.70216e-05 0)
(1.00035 -5.53592e-05 0)
(1.00072 -1.53821e-05 0)
(1.00107 -5.3975e-06 0)
(1.00141 0.000108441 0)
(1.00181 9.63672e-05 0)
(1.00225 0.000248706 0)
(1.0029 0.000330274 0)
(1.00391 0.000617827 0)
(1.00557 0.001003 0)
(1.00859 0.00181529 0)
(1.00001 -0.000597967 0)
(0.999567 -8.62622e-05 0)
(0.999339 -5.28028e-05 0)
(0.999299 0.000184023 0)
(0.999311 0.000119615 0)
(0.999376 2.5257e-05 0)
(0.999524 8.92887e-05 0)
(0.999683 -0.000340093 0)
(0.999887 8.07746e-05 0)
(1.00013 -0.000165269 0)
(1.00041 -9.64683e-05 0)
(1.00075 7.99822e-05 0)
(1.00109 3.51572e-05 0)
(1.00145 0.000147067 0)
(1.00185 0.000154014 0)
(1.00232 0.000296414 0)
(1.00299 0.000449677 0)
(1.00405 0.000743968 0)
(1.0058 0.00115469 0)
(1.00892 0.00184135 0)
(1.00001 -0.00047738 0)
(0.999608 -0.000215262 0)
(0.999388 -9.47543e-05 0)
(0.999326 0.000341942 0)
(0.999332 -2.58609e-05 0)
(0.999406 0.000283695 0)
(0.999514 -7.52285e-05 0)
(0.999716 -0.000144494 0)
(0.999928 -6.98108e-05 0)
(1.00013 -6.49082e-06 0)
(1.00045 -8.05615e-05 0)
(1.0008 6.15473e-05 0)
(1.00113 7.48582e-05 0)
(1.00149 0.000208368 0)
(1.0019 0.000210549 0)
(1.00239 0.000379088 0)
(1.00309 0.000539736 0)
(1.0042 0.000864858 0)
(1.00602 0.0012388 0)
(1.00922 0.00185269 0)
(1.00001 -0.000409994 0)
(0.999659 -0.000315628 0)
(0.999455 -4.61016e-05 0)
(0.99936 0.000230366 0)
(0.999366 0.000152231 0)
(0.999423 0.000177854 0)
(0.999523 -4.42122e-05 0)
(0.99974 5.45488e-06 0)
(0.999965 -0.000254987 0)
(1.00018 2.65204e-05 0)
(1.00048 1.86605e-05 0)
(1.00084 5.60959e-05 0)
(1.00118 0.000102178 0)
(1.00154 0.000229536 0)
(1.00196 0.000283427 0)
(1.00247 0.000433856 0)
(1.0032 0.000634079 0)
(1.00436 0.00094591 0)
(1.00624 0.00131686 0)
(1.00951 0.00183993 0)
(1.00001 -0.000386974 0)
(0.99971 -0.000264914 0)
(0.999509 -0.00015019 0)
(0.999411 0.000194274 0)
(0.999389 0.000316792 0)
(0.999441 5.66786e-05 0)
(0.999554 0.000106568 0)
(0.999741 1.47593e-05 0)
(0.999998 -0.000195674 0)
(1.00024 -2.86087e-05 0)
(1.00052 6.79306e-05 0)
(1.00088 0.000101949 0)
(1.00124 0.000126962 0)
(1.0016 0.000260854 0)
(1.00202 0.000341111 0)
(1.00256 0.000499922 0)
(1.00333 0.000701734 0)
(1.00452 0.00100808 0)
(1.00645 0.00135113 0)
(1.00977 0.00180431 0)
(1.00001 -0.000303407 0)
(0.999746 -0.000294008 0)
(0.999572 -0.000181772 0)
(0.999481 0.000136141 0)
(0.999406 0.000337688 0)
(0.999454 0.000133835 0)
(0.999575 7.01087e-05 0)
(0.999746 7.10477e-05 0)
(1.00002 -7.18619e-05 0)
(1.0003 -7.11035e-05 0)
(1.00057 6.69187e-05 0)
(1.00091 0.000153995 0)
(1.00129 0.000185684 0)
(1.00166 0.000294404 0)
(1.00209 0.00040131 0)
(1.00266 0.000552593 0)
(1.00346 0.000758207 0)
(1.00469 0.00104155 0)
(1.00666 0.00136817 0)
(1.01002 0.00175771 0)
(1.00001 -0.000265165 0)
(0.999786 -0.000258246 0)
(0.999625 -0.00019477 0)
(0.999542 4.62289e-05 0)
(0.999447 0.000290805 0)
(0.999459 0.000304674 0)
(0.999604 2.19211e-05 0)
(0.999773 9.7418e-05 0)
(1.00003 4.47423e-05 0)
(1.00033 -2.93793e-05 0)
(1.00063 2.8569e-05 0)
(1.00097 0.000168786 0)
(1.00134 0.000228334 0)
(1.00173 0.000341333 0)
(1.00217 0.000449803 0)
(1.00275 0.000606516 0)
(1.00359 0.000796067 0)
(1.00485 0.00106485 0)
(1.00686 0.00136193 0)
(1.01026 0.00171181 0)
(1.00001 -0.000230525 0)
(0.999813 -0.000225728 0)
(0.999672 -0.000200543 0)
(0.99961 1.09635e-05 0)
(0.999503 0.000203302 0)
(0.999461 0.000410936 0)
(0.999593 0.000112334 0)
(0.999805 6.5493e-05 0)
(1.00005 0.000111295 0)
(1.00035 7.67753e-05 0)
(1.00068 5.84023e-05 0)
(1.00102 0.000160606 0)
(1.0014 0.000256186 0)
(1.00179 0.000371339 0)
(1.00225 0.000490335 0)
(1.00285 0.000647852 0)
(1.00372 0.000831154 0)
(1.00501 0.00107571 0)
(1.00705 0.00134648 0)
(1.01048 0.00165446 0)
(1.00001 -0.000163416 0)
(0.999845 -0.000250962 0)
(0.999713 -0.000116163 0)
(0.999657 -8.26294e-05 0)
(0.999568 0.000132141 0)
(0.99949 0.000363821 0)
(0.999585 0.000289856 0)
(0.999824 0.000110908 0)
(1.00008 0.000112498 0)
(1.00037 0.000146328 0)
(1.00071 0.000127793 0)
(1.00108 0.000177113 0)
(1.00146 0.000266044 0)
(1.00186 0.000390137 0)
(1.00233 0.000518223 0)
(1.00295 0.000675038 0)
(1.00384 0.000849646 0)
(1.00516 0.00106598 0)
(1.00723 0.00130628 0)
(1.01069 0.00157467 0)
(1.00001 -0.000140265 0)
(0.999874 -0.000222496 0)
(0.99975 -0.000106241 0)
(0.999706 -6.45313e-05 0)
(0.999638 6.28321e-05 0)
(0.999541 0.000288479 0)
(0.999586 0.0004035 0)
(0.999812 0.000247849 0)
(1.0001 0.000132332 0)
(1.0004 0.000165179 0)
(1.00074 0.000188517 0)
(1.00112 0.000228941 0)
(1.00152 0.000288201 0)
(1.00194 0.000402357 0)
(1.00242 0.000531255 0)
(1.00305 0.000686588 0)
(1.00396 0.000852142 0)
(1.00531 0.00104782 0)
(1.00741 0.001259 0)
(1.01088 0.00149441 0)
(1.00001 -0.000106118 0)
(0.999902 -0.000179875 0)
(0.999789 -0.000106809 0)
(0.999737 -6.02717e-06 0)
(0.999687 4.651e-06 0)
(0.999611 0.000192463 0)
(0.999621 0.000408668 0)
(0.999799 0.000409835 0)
(1.0001 0.000241589 0)
(1.00043 0.000184045 0)
(1.00077 0.000216146 0)
(1.00116 0.000266156 0)
(1.00157 0.000320719 0)
(1.00201 0.00041284 0)
(1.00251 0.000535333 0)
(1.00316 0.000681989 0)
(1.00408 0.000838181 0)
(1.00545 0.00101166 0)
(1.00757 0.00119472 0)
(1.01106 0.00139484 0)
(1.00001 -8.64403e-05 0)
(0.999918 -0.000134379 0)
(0.999825 -0.000110836 0)
(0.999769 2.46126e-05 0)
(0.999723 2.97042e-05 0)
(0.999679 0.000129961 0)
(0.999682 0.000339002 0)
(0.999805 0.00049207 0)
(1.00008 0.000394769 0)
(1.00043 0.000259057 0)
(1.00081 0.00023076 0)
(1.0012 0.000285074 0)
(1.00163 0.000343051 0)
(1.00208 0.000425557 0)
(1.00259 0.000531829 0)
(1.00326 0.000665933 0)
(1.0042 0.000807604 0)
(1.00558 0.000961707 0)
(1.00772 0.00111729 0)
(1.01123 0.0012867 0)
(1.00001 -6.06113e-05 0)
(0.999934 -0.000103514 0)
(0.999857 -7.17104e-05 0)
(0.999801 1.7886e-05 0)
(0.999747 9.06842e-05 0)
(0.999725 0.000126691 0)
(0.999757 0.00026192 0)
(0.99985 0.000473024 0)
(1.00006 0.000523801 0)
(1.00041 0.000398138 0)
(1.00082 0.000292383 0)
(1.00124 0.000297209 0)
(1.00168 0.000351583 0)
(1.00214 0.000427528 0)
(1.00267 0.000521112 0)
(1.00336 0.000637039 0)
(1.00431 0.00076185 0)
(1.0057 0.000894019 0)
(1.00785 0.00102561 0)
(1.01138 0.00116398 0)
(1 -4.61649e-05 0)
(0.999944 -5.33355e-05 0)
(0.999878 -4.72432e-05 0)
(0.999833 2.05431e-05 0)
(0.999777 0.000122924 0)
(0.999753 0.000188707 0)
(0.999813 0.000237904 0)
(0.999917 0.000409635 0)
(1.00008 0.000552682 0)
(1.00037 0.000528304 0)
(1.00079 0.000398277 0)
(1.00126 0.000334568 0)
(1.00172 0.000352085 0)
(1.0022 0.000416135 0)
(1.00275 0.000496142 0)
(1.00344 0.000595153 0)
(1.00441 0.00069868 0)
(1.00581 0.000809913 0)
(1.00797 0.000917823 0)
(1.01151 0.00102988 0)
(1 -3.21822e-05 0)
(0.99995 -1.58756e-05 0)
(0.99989 -7.0596e-06 0)
(0.999859 4.2335e-05 0)
(0.999808 0.000134483 0)
(0.999775 0.000246313 0)
(0.999845 0.000286998 0)
(0.999977 0.000363944 0)
(1.00012 0.000516036 0)
(1.00036 0.000588946 0)
(1.00075 0.000514876 0)
(1.00124 0.000410715 0)
(1.00174 0.00037163 0)
(1.00224 0.000400964 0)
(1.00281 0.000462756 0)
(1.00352 0.000541908 0)
(1.00449 0.000624552 0)
(1.0059 0.000711228 0)
(1.00807 0.000795589 0)
(1.01161 0.000881352 0)
(1 -9.53009e-06 0)
(0.999956 -4.01261e-06 0)
(0.999898 5.56241e-05 0)
(0.999877 7.25701e-05 0)
(0.999842 0.000151289 0)
(0.999806 0.000286838 0)
(0.999859 0.000359063 0)
(1.00001 0.000382714 0)
(1.00017 0.000469571 0)
(1.00038 0.000577981 0)
(1.00071 0.000582321 0)
(1.00119 0.000495709 0)
(1.00172 0.000414483 0)
(1.00227 0.000395014 0)
(1.00285 0.000422519 0)
(1.00357 0.000475684 0)
(1.00455 0.000534511 0)
(1.00597 0.000595608 0)
(1.00814 0.000654958 0)
(1.01169 0.000715479 0)
(1 5.50306e-06 0)
(0.999967 1.8586e-05 0)
(0.999908 0.000100575 0)
(0.999884 0.000127703 0)
(0.999873 0.000180765 0)
(0.999842 0.000316589 0)
(0.999877 0.000418896 0)
(1.00002 0.000443137 0)
(1.00021 0.000470069 0)
(1.00041 0.000550473 0)
(1.0007 0.000597263 0)
(1.00114 0.000554729 0)
(1.00167 0.000467824 0)
(1.00225 0.000406058 0)
(1.00287 0.000388854 0)
(1.00361 0.000403807 0)
(1.0046 0.000431287 0)
(1.00602 0.000463694 0)
(1.00819 0.000496545 0)
(1.01175 0.000531655 0)
(1 1.66305e-05 0)
(0.999973 5.41325e-05 0)
(0.999918 0.000128899 0)
(0.99989 0.000183298 0)
(0.999895 0.000233256 0)
(0.999882 0.000350926 0)
(0.999897 0.000470464 0)
(1.00002 0.000507409 0)
(1.00022 0.000513644 0)
(1.00043 0.000543334 0)
(1.0007 0.000584804 0)
(1.0011 0.000569628 0)
(1.00161 0.000500348 0)
(1.0022 0.000420137 0)
(1.00284 0.000364589 0)
(1.0036 0.000334923 0)
(1.0046 0.000317849 0)
(1.00603 0.00030418 0)
(1.00821 0.000290778 0)
(1.01178 0.000280612 0)
(0.999999 2.99213e-05 0)
(0.999978 8.2683e-05 0)
(0.999926 0.000158272 0)
(0.999896 0.000236514 0)
(0.999912 0.000300281 0)
(0.999914 0.000395246 0)
(0.999922 0.000508965 0)
(1.00002 0.000570617 0)
(1.00021 0.00057502 0)
(1.00043 0.000580671 0)
(1.0007 0.000587765 0)
(1.00106 0.000571473 0)
(1.00154 0.000508948 0)
(1.00212 0.00042414 0)
(1.00277 0.000351879 0)
(1.00354 0.000305801 0)
(1.00454 0.000281385 0)
(1.00597 0.000263545 0)
(1.00814 0.00024534 0)
(1.01171 0.000224053 0)
(0.999999 4.13945e-05 0)
(0.999979 0.000116576 0)
(0.999935 0.000184519 0)
(0.999907 0.000281725 0)
(0.999924 0.000371708 0)
(0.999939 0.000455727 0)
(0.999946 0.000556265 0)
(1.00002 0.00062685 0)
(1.00019 0.000644931 0)
(1.00041 0.000637142 0)
(1.00067 0.000628542 0)
(1.00101 0.000592999 0)
(1.00147 0.000513134 0)
(1.00203 0.00038734 0)
(1.0027 0.000241926 0)
(1.0035 9.73574e-05 0)
(1.00453 -3.04127e-05 0)
(1.00596 -0.000140093 0)
(1.00813 -0.000230137 0)
(1.01169 -0.000307697 0)
(0.999999 5.29107e-05 0)
(0.999977 0.000147322 0)
(0.999938 0.000220578 0)
(0.999922 0.000329701 0)
(0.99994 0.000434692 0)
(0.999955 0.000523438 0)
(0.999964 0.000619649 0)
(1.00002 0.0006897 0)
(1.00017 0.00071472 0)
(1.00038 0.000689327 0)
(1.00062 0.000671079 0)
(1.00093 0.000649447 0)
(1.00133 0.000614614 0)
(1.00183 0.000550948 0)
(1.00243 0.000466008 0)
(1.00319 0.000361124 0)
(1.00421 0.00024334 0)
(1.00566 0.000112688 0)
(1.00786 -2.0327e-05 0)
(1.01145 -0.000151256 0)
(0.999999 7.05739e-05 0)
(0.999973 0.000156258 0)
(0.999943 0.000256383 0)
(0.999935 0.000377332 0)
(0.999952 0.000493349 0)
(0.999973 0.000576284 0)
(0.999981 0.000684226 0)
(1.00002 0.000773143 0)
(1.00013 0.00083519 0)
(1.00032 0.000804059 0)
(1.00058 0.000720719 0)
(1.00091 0.000584088 0)
(1.00133 0.000421637 0)
(1.00184 0.000214457 0)
(1.00246 -7.31779e-06 0)
(1.0032 -0.000250102 0)
(1.00417 -0.000484932 0)
(1.00555 -0.000720599 0)
(1.00769 -0.000931973 0)
(1.01123 -0.00111818 0)
(1 0.000107694 0)
(0.999971 0.000154972 0)
(0.999955 0.000310346 0)
(0.999956 0.00041443 0)
(0.999965 0.000567597 0)
(0.999989 0.000624689 0)
(1.00001 0.000723367 0)
(1.00006 0.000790105 0)
(1.00012 0.000917513 0)
(1.00022 0.00100384 0)
(1.00036 0.00110032 0)
(1.00058 0.00112663 0)
(1.00087 0.00114299 0)
(1.00127 0.00107331 0)
(1.0018 0.000966542 0)
(1.00249 0.000761967 0)
(1.00347 0.000504956 0)
(1.0049 0.000144265 0)
(1.00713 -0.000277184 0)
(1.01082 -0.000786649 0)
(1 0.000102137 0)
(0.999963 0.00015297 0)
(0.999966 0.000377082 0)
(0.999971 0.00043267 0)
(0.999974 0.000638537 0)
(0.999978 0.000717351 0)
(0.999999 0.000866017 0)
(1.00008 0.00087922 0)
(1.00022 0.000904712 0)
(1.00041 0.000798551 0)
(1.00063 0.000697564 0)
(1.0009 0.000485875 0)
(1.00122 0.000286069 0)
(1.00159 2.75712e-06 0)
(1.00201 -0.000256054 0)
(1.00251 -0.000573748 0)
(1.00317 -0.000860459 0)
(1.00419 -0.00118288 0)
(1.00592 -0.00144906 0)
(1.00911 -0.00170432 0)
(0.999998 0.00021191 0)
(0.999996 4.20941e-05 0)
(0.999982 0.000555005 0)
(0.999996 0.000340689 0)
(1.00003 0.000727828 0)
(1.00004 0.000553672 0)
(1.00002 0.00092841 0)
(0.999984 0.00092176 0)
(0.99994 0.00140327 0)
(0.999913 0.00155707 0)
(0.999919 0.0021064 0)
(0.999995 0.00231382 0)
(1.00016 0.00274285 0)
(1.00044 0.0027721 0)
(1.00085 0.00291432 0)
(1.00146 0.00266743 0)
(1.00236 0.00243683 0)
(1.00379 0.00169336 0)
(1.00609 0.000586324 0)
(1.01002 -0.00163463 0)
(0.99999 8.73113e-05 0)
(1.00003 0.000246864 0)
(0.999986 0.000421881 0)
(0.999966 0.000606373 0)
(0.999966 0.000751647 0)
(1.00001 0.000839261 0)
(1.00015 0.000859277 0)
(1.00039 0.000773031 0)
(1.0007 0.00063683 0)
(1.00106 0.000445537 0)
(1.00138 0.000249944 0)
(1.00162 2.97777e-05 0)
(1.00175 -0.000186642 0)
(1.00181 -0.000413735 0)
(1.00179 -0.000619472 0)
(1.00167 -0.000811496 0)
(1.00129 -0.000970766 0)
(1.00039 -0.00111672 0)
(0.99849 -0.00124679 0)
(0.994712 -0.00139984 0)
(0.999999 0.000148631 0)
(1.00001 0.000232437 0)
(1.00003 0.000414557 0)
(1.00005 0.000538827 0)
(1.00003 0.000693871 0)
(0.999968 0.000840022 0)
(0.999797 0.00108713 0)
(0.999593 0.00126216 0)
(0.999395 0.00144627 0)
(0.999248 0.00149825 0)
(0.999153 0.00147459 0)
(0.999147 0.00128501 0)
(0.999251 0.00103204 0)
(0.999513 0.000667063 0)
(0.99996 0.00026974 0)
(1.00065 -0.000222752 0)
(1.0017 -0.000760377 0)
(1.00332 -0.00138568 0)
(1.0059 -0.00201159 0)
(1.01013 -0.00261466 0)
(0.999996 0.000111683 0)
(0.999997 0.000284407 0)
(0.999988 0.000508503 0)
(0.99997 0.000639483 0)
(1.00001 0.000782982 0)
(1.00017 0.000813869 0)
(1.00039 0.000813586 0)
(1.00064 0.00074297 0)
(1.00088 0.000666112 0)
(1.00106 0.000540521 0)
(1.00111 0.00042233 0)
(1.00103 0.000271377 0)
(1.00084 0.000127504 0)
(1.00057 -5.36955e-05 0)
(1.00017 -0.000242862 0)
(0.999578 -0.00047336 0)
(0.998629 -0.0007117 0)
(0.997106 -0.00098252 0)
(0.99464 -0.00127824 0)
(0.990517 -0.00164783 0)
(0.999995 8.0556e-05 0)
(1.00004 0.000272764 0)
(1.00006 0.000411198 0)
(1.00005 0.000598399 0)
(0.999963 0.000818902 0)
(0.999767 0.00103088 0)
(0.999473 0.00117842 0)
(0.999147 0.00127451 0)
(0.998837 0.00125548 0)
(0.998594 0.00112161 0)
(0.998424 0.000874166 0)
(0.998356 0.000564969 0)
(0.998393 0.000193178 0)
(0.998575 -0.000217874 0)
(0.998933 -0.000680714 0)
(0.999558 -0.00116974 0)
(1.00058 -0.00167475 0)
(1.00221 -0.00214973 0)
(1.00479 -0.0025677 0)
(1.009 -0.00287472 0)
(0.999999 0.000114819 0)
(0.999994 0.000241805 0)
(1.00001 0.000418415 0)
(1.00008 0.000542924 0)
(1.00019 0.000729081 0)
(1.00034 0.000854469 0)
(1.00051 0.00106163 0)
(1.00064 0.00120593 0)
(1.00064 0.00135902 0)
(1.00053 0.00139445 0)
(1.00029 0.00140971 0)
(0.999943 0.00132134 0)
(0.999465 0.00120279 0)
(0.998858 0.000964809 0)
(0.998096 0.000665953 0)
(0.997134 0.000247222 0)
(0.995865 -0.000229936 0)
(0.994109 -0.000819995 0)
(0.99152 -0.00147511 0)
(0.987435 -0.00224 0)
(0.999997 6.44003e-05 0)
(1.00003 0.000184374 0)
(1.00007 0.000350915 0)
(1.0001 0.000580986 0)
(1.00002 0.000841309 0)
(0.999864 0.00111872 0)
(0.999584 0.00135154 0)
(0.999201 0.00150749 0)
(0.998746 0.00155859 0)
(0.998318 0.00152338 0)
(0.997956 0.00139199 0)
(0.99767 0.00117097 0)
(0.997422 0.000854113 0)
(0.997234 0.000444012 0)
(0.997166 -5.91938e-05 0)
(0.997339 -0.00064478 0)
(0.997882 -0.00129299 0)
(0.999019 -0.0019657 0)
(1.00113 -0.00261206 0)
(1.00497 -0.00316794 0)
(0.999997 0.000159329 0)
(1.00004 -0.000118845 0)
(1.00018 0.000181843 0)
(1.00038 5.40321e-05 0)
(1.00059 0.00048589 0)
(1.0008 0.000644773 0)
(1.0009 0.00131288 0)
(1.00087 0.00174344 0)
(1.00065 0.00255422 0)
(1.00028 0.00307474 0)
(0.999707 0.00378772 0)
(0.998949 0.0041127 0)
(0.997976 0.00447605 0)
(0.996788 0.00441372 0)
(0.995362 0.00429537 0)
(0.993689 0.00371173 0)
(0.991735 0.00295036 0)
(0.989415 0.00163382 0)
(0.986479 -5.54743e-05 0)
(0.982336 -0.00257221 0)
(1.00415 0.00203082 0)
(0.991699 0.00274835 0)
(0.977213 0.00316153 0)
(0.9627 0.00344633 0)
(0.948673 0.00361139 0)
(0.93517 0.00360839 0)
(0.922147 0.00345918 0)
(0.90955 0.00325116 0)
(0.897339 0.00307377 0)
(0.885431 0.00297068 0)
(0.873699 0.00292817 0)
(0.861983 0.002912 0)
(0.850157 0.00289927 0)
(0.838123 0.00288102 0)
(0.825844 0.00285759 0)
(0.813301 0.0028335 0)
(0.800525 0.00281192 0)
(0.787537 0.00279352 0)
(0.774387 0.00277754 0)
(0.761092 0.00276173 0)
(0.747691 0.00274507 0)
(0.734183 0.00272662 0)
(0.720594 0.00270618 0)
(0.706911 0.00268529 0)
(0.693142 0.00266307 0)
(0.679275 0.00264251 0)
(0.665302 0.00262024 0)
(0.651228 0.00260009 0)
(0.637031 0.00257683 0)
(0.622743 0.00255426 0)
(0.608327 0.00252855 0)
(0.593838 0.00250051 0)
(0.579239 0.00247217 0)
(0.564584 0.00243771 0)
(0.549851 0.00240764 0)
(0.535061 0.00237185 0)
(0.520221 0.00234289 0)
(0.5053 0.00231217 0)
(0.490351 0.0022818 0)
(0.475316 0.00225305 0)
(0.460274 0.00221418 0)
(0.445185 0.00217412 0)
(0.430129 0.00211818 0)
(0.415138 0.0020574 0)
(0.40027 0.00198208 0)
(0.385639 0.00190312 0)
(0.37122 0.0018254 0)
(0.357146 0.0017234 0)
(0.343404 0.00160752 0)
(0.330077 0.0014689 0)
(0.317271 0.00131144 0)
(0.305068 0.00114189 0)
(0.293661 0.00097355 0)
(0.283127 0.00075781 0)
(0.273705 0.000502499 0)
(0.265399 0.000277123 0)
(0.258185 8.63905e-05 0)
(0.252051 -7.13572e-05 0)
(0.246902 -0.000200748 0)
(0.24269 -0.000301482 0)
(0.239302 -0.00036462 0)
(0.236543 -0.000405973 0)
(0.234377 -0.000435448 0)
(0.232658 -0.000453583 0)
(0.231285 -0.000467936 0)
(0.230252 -0.000469165 0)
(0.229438 -0.000445202 0)
(0.228759 -0.000408079 0)
(0.228158 -0.000361088 0)
(0.227513 -0.000309423 0)
(0.226801 -0.000280606 0)
(0.226024 -0.000278649 0)
(0.22524 -0.000278299 0)
(0.224486 -0.000267289 0)
(0.223792 -0.000244022 0)
(0.223087 -0.000207515 0)
(0.222296 -0.000161072 0)
(0.221324 -0.000114256 0)
(0.220173 -8.93282e-05 0)
(0.21888 -8.99796e-05 0)
(0.217582 -9.98675e-05 0)
(0.216362 -0.000106078 0)
(0.215266 -9.95423e-05 0)
(0.214215 -7.90939e-05 0)
(0.21316 -6.01163e-05 0)
(0.212028 -5.11476e-05 0)
(0.210864 -5.05333e-05 0)
(0.209697 -5.51898e-05 0)
(0.208602 -5.71021e-05 0)
(0.207564 -5.31471e-05 0)
(0.206574 -4.81234e-05 0)
(0.205568 -4.39076e-05 0)
(0.204565 -3.90745e-05 0)
(0.203573 -3.51307e-05 0)
(0.202647 -3.02123e-05 0)
(0.201772 -2.51046e-05 0)
(0.200946 -2.15502e-05 0)
(0.200136 -1.96993e-05 0)
(0.199366 -1.86921e-05 0)
(0.198639 -2.08917e-05 0)
(0.197958 -2.10474e-05 0)
(0.197273 -1.56747e-05 0)
(0.196575 -1.13932e-05 0)
(0.195895 -1.19179e-05 0)
(0.19528 -1.15419e-05 0)
(0.194702 -8.57457e-06 0)
(0.194137 -5.99242e-06 0)
(0.193596 -5.67956e-06 0)
(0.193108 -4.84337e-06 0)
(0.192661 -2.51973e-06 0)
(0.192242 -4.28591e-07 0)
(0.191847 5.51028e-07 0)
(0.191487 9.01421e-07 0)
(0.191152 1.84883e-06 0)
(0.190842 2.58743e-06 0)
(0.190548 2.62197e-06 0)
(0.190291 2.15508e-06 0)
(0.190058 2.88831e-06 0)
(0.189853 4.01557e-06 0)
(0.189661 4.68376e-06 0)
(0.189501 5.0553e-06 0)
(0.189351 5.99175e-06 0)
(0.189222 6.92394e-06 0)
(0.189098 6.93938e-06 0)
(0.189003 6.62477e-06 0)
(0.18892 6.48336e-06 0)
(0.188857 6.63191e-06 0)
(0.188797 6.4813e-06 0)
(0.188756 6.26541e-06 0)
(0.188719 6.11089e-06 0)
(0.1887 5.99653e-06 0)
(0.188682 5.83998e-06 0)
(0.18868 5.58397e-06 0)
(0.188675 5.35681e-06 0)
(0.188686 5.06457e-06 0)
(0.188691 5.15305e-06 0)
(0.188711 4.98623e-06 0)
(0.188723 5.0058e-06 0)
(0.188753 4.6546e-06 0)
(0.18877 4.32227e-06 0)
(0.188805 3.69808e-06 0)
(0.188822 3.15883e-06 0)
(0.188856 2.34029e-06 0)
(0.188868 1.72643e-06 0)
(0.188899 9.05225e-07 0)
(0.188904 5.88404e-07 0)
(0.188933 7.89072e-09 0)
(0.188934 5.94131e-08 0)
(0.188965 -4.70687e-07 0)
(0.18896 -2.36397e-07 0)
(0.188995 -6.83875e-07 0)
(0.188986 -3.56294e-07 0)
(0.189025 -7.57665e-07 0)
(0.189011 -4.89631e-07 0)
(0.189054 -7.70086e-07 0)
(0.189034 -6.18084e-07 0)
(0.18908 -7.5094e-07 0)
(0.189054 -6.60119e-07 0)
(0.189103 -7.75176e-07 0)
(0.189071 -5.92836e-07 0)
(0.189123 -8.43694e-07 0)
(0.189083 -4.09656e-07 0)
(0.189141 -8.38545e-07 0)
(0.189091 -9.82303e-08 0)
(0.189157 -7.12264e-07 0)
(0.189094 2.08805e-07 0)
(0.18917 -4.91293e-07 0)
(0.189094 3.3402e-07 0)
(0.18918 -2.84775e-07 0)
(0.189091 2.8697e-07 0)
(0.189188 -8.25616e-08 0)
(0.189086 1.74718e-07 0)
(0.189193 3.69605e-08 0)
(0.189079 1.12583e-07 0)
(0.189197 -1.07576e-08 0)
(0.18907 1.97183e-07 0)
(0.189202 -2.06188e-07 0)
(0.189055 4.32986e-07 0)
(0.189208 -3.99669e-07 0)
(0.189033 6.93526e-07 0)
(0.189216 -4.23778e-07 0)
(0.189003 8.25327e-07 0)
(0.189226 -3.66153e-07 0)
(0.188961 1.06754e-06 0)
(0.189239 -6.03724e-07 0)
(0.188898 1.79377e-06 0)
(0.189255 -1.23943e-06 0)
(0.188804 2.88206e-06 0)
(0.189272 -1.60562e-06 0)
(0.188668 3.86121e-06 0)
(0.189273 -9.47086e-07 0)
(0.188467 5.36716e-06 0)
(0.189221 2.88237e-07 0)
(0.188149 8.74484e-06 0)
(0.189043 3.5024e-06 0)
(0.187558 1.40923e-05 0)
(0.188624 1.86051e-05 0)
(0.186107 1.44522e-05 0)
(0.187918 7.29918e-05 0)
(0.181968 0.000134778 0)
(1.00999 0.00169492 0)
(1.00893 0.00270255 0)
(1.00581 0.00387738 0)
(1.00269 0.00507068 0)
(0.999983 0.00587202 0)
(0.997756 0.00613499 0)
(0.99599 0.00593949 0)
(0.994661 0.00553431 0)
(0.993685 0.00518056 0)
(0.992951 0.00500335 0)
(0.992305 0.00497788 0)
(0.991601 0.00502153 0)
(0.990737 0.0050741 0)
(0.989629 0.00511078 0)
(0.988258 0.00513181 0)
(0.986596 0.0051459 0)
(0.984681 0.00516105 0)
(0.982512 0.00518075 0)
(0.98014 0.00520378 0)
(0.977569 0.00522775 0)
(0.974828 0.00524954 0)
(0.971924 0.00526823 0)
(0.968856 0.00528346 0)
(0.965638 0.00529677 0)
(0.962243 0.00530951 0)
(0.958691 0.00532323 0)
(0.954943 0.00533813 0)
(0.951019 0.00535464 0)
(0.946889 0.00537162 0)
(0.942561 0.00538836 0)
(0.938022 0.00540427 0)
(0.933264 0.00541678 0)
(0.928297 0.00542733 0)
(0.923096 0.00543233 0)
(0.917688 0.00543453 0)
(0.912033 0.00543386 0)
(0.906161 0.00543104 0)
(0.900035 0.00542843 0)
(0.893674 0.00542242 0)
(0.887069 0.00541568 0)
(0.880215 0.00540344 0)
(0.87314 0.0053875 0)
(0.865818 0.00536097 0)
(0.858312 0.00532313 0)
(0.850601 0.00526925 0)
(0.84274 0.00519596 0)
(0.834748 0.00511538 0)
(0.826609 0.00500959 0)
(0.818413 0.00489088 0)
(0.810102 0.00475138 0)
(0.801784 0.00458004 0)
(0.793474 0.00437363 0)
(0.785242 0.00412542 0)
(0.777185 0.00383255 0)
(0.76937 0.00349751 0)
(0.761892 0.00315497 0)
(0.754758 0.0028215 0)
(0.747954 0.00249922 0)
(0.741532 0.00219675 0)
(0.735411 0.00191269 0)
(0.72964 0.00165754 0)
(0.724136 0.00144674 0)
(0.718883 0.0012634 0)
(0.713887 0.00111137 0)
(0.709082 0.000985975 0)
(0.704456 0.000873702 0)
(0.699997 0.000785293 0)
(0.69561 0.000710932 0)
(0.691329 0.000661986 0)
(0.687061 0.000638606 0)
(0.682859 0.000636047 0)
(0.678654 0.000640672 0)
(0.674509 0.000621188 0)
(0.670421 0.000581349 0)
(0.666413 0.000543534 0)
(0.662422 0.000528096 0)
(0.658481 0.00053697 0)
(0.654445 0.000564733 0)
(0.650417 0.000598665 0)
(0.646307 0.00061492 0)
(0.642192 0.000594559 0)
(0.638122 0.000549416 0)
(0.634158 0.000505112 0)
(0.630193 0.00048051 0)
(0.626365 0.000476736 0)
(0.622531 0.000483098 0)
(0.618746 0.000483195 0)
(0.615007 0.000465472 0)
(0.611376 0.000436316 0)
(0.607749 0.000412078 0)
(0.604226 0.000402226 0)
(0.600674 0.000399359 0)
(0.597155 0.000390055 0)
(0.593656 0.000364292 0)
(0.590278 0.000332346 0)
(0.586993 0.000306352 0)
(0.583884 0.000289006 0)
(0.580874 0.000272259 0)
(0.578034 0.000256348 0)
(0.575318 0.000241119 0)
(0.572667 0.000234791 0)
(0.569993 0.000235955 0)
(0.567387 0.000229743 0)
(0.564858 0.000207893 0)
(0.562409 0.000187557 0)
(0.560039 0.000176868 0)
(0.557783 0.000166885 0)
(0.555625 0.000149345 0)
(0.553574 0.000131837 0)
(0.551625 0.00011985 0)
(0.549792 0.000109879 0)
(0.548061 9.91733e-05 0)
(0.546442 8.85884e-05 0)
(0.544906 8.11642e-05 0)
(0.543475 7.48194e-05 0)
(0.542127 6.75122e-05 0)
(0.540887 5.81901e-05 0)
(0.539709 5.09338e-05 0)
(0.538637 4.47605e-05 0)
(0.537624 3.79884e-05 0)
(0.536711 3.08572e-05 0)
(0.535838 2.61036e-05 0)
(0.535058 2.24547e-05 0)
(0.534317 1.73123e-05 0)
(0.533671 1.20684e-05 0)
(0.533062 8.30208e-06 0)
(0.53254 6.31091e-06 0)
(0.532045 3.73646e-06 0)
(0.53163 1.13822e-06 0)
(0.531238 -1.30865e-06 0)
(0.530922 -2.99458e-06 0)
(0.530624 -4.39995e-06 0)
(0.530398 -5.71041e-06 0)
(0.530179 -6.71444e-06 0)
(0.530028 -7.9996e-06 0)
(0.529873 -8.64004e-06 0)
(0.529789 -9.85464e-06 0)
(0.529693 -1.03212e-05 0)
(0.529674 -1.11733e-05 0)
(0.529631 -1.08007e-05 0)
(0.529663 -1.05136e-05 0)
(0.529652 -9.23707e-06 0)
(0.529712 -8.24433e-06 0)
(0.529707 -6.46804e-06 0)
(0.529776 -5.5021e-06 0)
(0.529761 -3.94969e-06 0)
(0.529837 -3.81395e-06 0)
(0.52981 -2.64887e-06 0)
(0.529899 -3.09088e-06 0)
(0.529862 -1.97553e-06 0)
(0.529971 -2.70039e-06 0)
(0.529924 -1.60633e-06 0)
(0.530056 -2.36091e-06 0)
(0.529999 -1.34305e-06 0)
(0.530149 -1.93451e-06 0)
(0.530082 -1.05973e-06 0)
(0.530246 -1.49926e-06 0)
(0.530166 -7.14457e-07 0)
(0.530341 -1.16255e-06 0)
(0.530245 -2.6164e-07 0)
(0.530434 -1.03211e-06 0)
(0.530313 2.30318e-07 0)
(0.530521 -1.16265e-06 0)
(0.530364 6.56723e-07 0)
(0.530599 -1.36638e-06 0)
(0.530397 8.82215e-07 0)
(0.530662 -1.39407e-06 0)
(0.530413 8.24033e-07 0)
(0.530711 -1.17459e-06 0)
(0.530415 4.99056e-07 0)
(0.530747 -7.07158e-07 0)
(0.530409 2.40379e-07 0)
(0.530772 -3.07859e-07 0)
(0.530397 3.56786e-07 0)
(0.530793 -3.18396e-07 0)
(0.530374 9.31313e-07 0)
(0.53082 -6.92416e-07 0)
(0.530332 1.75058e-06 0)
(0.530863 -1.07377e-06 0)
(0.530264 2.26159e-06 0)
(0.530923 -9.88404e-07 0)
(0.530172 2.30886e-06 0)
(0.530998 -3.97906e-07 0)
(0.53005 2.35642e-06 0)
(0.531097 8.06371e-08 0)
(0.529874 3.04877e-06 0)
(0.531239 3.80205e-07 0)
(0.529623 4.32066e-06 0)
(0.531413 1.47823e-06 0)
(0.529308 5.77542e-06 0)
(0.531568 4.29466e-06 0)
(0.528932 8.97461e-06 0)