/*--------------------------------*- C++ -*----------------------------------*\
| =========                 |                                                 |
| \\      /  F ield         | OpenFOAM: The Open Source CFD Toolbox           |
|  \\    /   O peration     | Version:  v2012                                 |
|   \\  /    A nd           | Website:  www.openfoam.com                      |
|    \\/     M anipulation  |                                                 |
\*---------------------------------------------------------------------------*/
FoamFile
{
    version     2.0;
    format      ascii;
    class       volScalarField;
    location    "0.2";
    object      p;
}
// * * * * * * * * * * * * * * * * * * * * * * * * * * * * * * * * * * * * * //

dimensions      [0 2 -2 0 0 0 0];


internalField   nonuniform List<scalar> 
8800
(
7.18097e-12
0.000745672
0.000608471
0.0007745
0.000912429
0.00108237
0.00110446
0.000973397
0.00113741
0.0016291
0.00178617
0.00168439
0.00169277
0.00150271
0.00127777
0.000861359
1.77038e-05
-0.00101787
-0.00241257
-0.00444669
2.19046e-06
0.000745029
0.000610123
0.000772765
0.000912681
0.00107852
0.0011042
0.000963616
0.00113915
0.00162768
0.00179077
0.00168639
0.00169711
0.00148625
0.00128517
0.00084372
-1.71605e-05
-0.0010686
-0.00240635
-0.00469245
6.74609e-06
0.000742775
0.000611963
0.000768194
0.000915439
0.00107424
0.00110495
0.000951244
0.00113954
0.00162769
0.00178793
0.00169309
0.00169007
0.00149899
0.00128448
0.000840703
-8.95043e-05
-0.0012015
-0.00241884
-0.00437234
1.18503e-05
0.000739949
0.000613685
0.000763989
0.000917487
0.00106925
0.0011033
0.000950171
0.00113771
0.00162984
0.00178509
0.00170282
0.00166405
0.00154171
0.00126584
0.000858071
-0.000156944
-0.00149023
-0.00306305
-0.00434705
1.97832e-05
0.000732834
0.000617399
0.000754982
0.000924385
0.00105932
0.00110812
0.000927908
0.00114454
0.00161827
0.00179986
0.00169071
0.00168278
0.00148752
0.00126172
0.000860897
-7.81501e-05
-0.00119059
-0.00249451
-0.00468852
2.82041e-05
0.00072533
0.000619875
0.000748076
0.000930246
0.00105146
0.00110665
0.000921415
0.00114029
0.00161812
0.00180194
0.00168814
0.0016814
0.0014871
0.00125857
0.000882082
-1.33257e-05
-0.00121261
-0.00277715
-0.00553203
3.97715e-05
0.000713264
0.000624013
0.000737111
0.000937623
0.00104217
0.00110633
0.000913998
0.0011323
0.00162247
0.0017897
0.00169792
0.00166687
0.00150095
0.0012645
0.000900804
-7.51041e-06
-0.00125597
-0.00288061
-0.00563733
5.39331e-05
0.000697419
0.000628141
0.000723777
0.000947605
0.00102949
0.00110638
0.000899974
0.00112121
0.0016283
0.00177483
0.00170405
0.00165364
0.00150202
0.00128326
0.000904066
-1.39425e-05
-0.00131406
-0.00296759
-0.00575221
6.97302e-05
0.000681213
0.000629234
0.000715785
0.000954143
0.00102693
0.00109345
0.000912651
0.0010956
0.00164232
0.00175785
0.00169972
0.00164262
0.00150239
0.0012762
0.000912653
-1.08954e-05
-0.00138918
-0.00324007
-0.00595691
8.99745e-05
0.000656915
0.000632686
0.000696528
0.000962629
0.00101881
0.00108669
0.000904622
0.00107693
0.00163595
0.00175693
0.00167395
0.00167688
0.00149304
0.00126
0.000916916
1.46552e-05
-0.00138397
-0.00317859
-0.00612514
0.000111212
0.000637126
0.000627866
0.00069237
0.000965394
0.00102061
0.00106904
0.000910135
0.00105419
0.00162332
0.00176157
0.00163471
0.00166906
0.00149564
0.00124393
0.000911141
4.6271e-05
-0.00138584
-0.00328407
-0.00641928
0.000136693
0.000607213
0.000623255
0.000676645
0.0009664
0.00102393
0.00104896
0.000920288
0.00102657
0.00160641
0.00175979
0.00159997
0.00162878
0.00151072
0.00123223
0.000891753
6.13221e-05
-0.00139645
-0.00340219
-0.00656808
0.000162372
0.00059513
0.000610786
0.000668893
0.000965865
0.00102587
0.00103345
0.000912887
0.00100109
0.00157375
0.00175892
0.0015664
0.00157625
0.00151449
0.00123357
0.000862678
6.40886e-05
-0.00140084
-0.00348828
-0.00666021
0.000190087
0.000560425
0.000593663
0.000658085
0.000962239
0.00103133
0.00101382
0.000912663
0.000978746
0.00152733
0.00175316
0.00153554
0.00150955
0.00149971
0.00124088
0.000836409
5.5234e-05
-0.00138713
-0.00348954
-0.00669452
0.000215665
0.000546101
0.000574667
0.000640339
0.000959311
0.00103442
0.000994923
0.0008697
0.000954378
0.00146901
0.00173664
0.00151089
0.00143369
0.00145719
0.00124359
0.000819314
4.18995e-05
-0.0013612
-0.00345778
-0.00668164
0.000239756
0.000532529
0.000553046
0.000618058
0.000952571
0.00104074
0.000973483
0.000862876
0.000928618
0.00140308
0.00169568
0.00150308
0.00135387
0.00139084
0.00123532
0.000807847
3.17689e-05
-0.00133317
-0.00342897
-0.00661069
0.000260826
0.000522874
0.000534876
0.000584999
0.000942301
0.00104865
0.00095154
0.000845904
0.000905273
0.00133091
0.00164041
0.00147598
0.00128553
0.00131057
0.00120636
0.000793113
2.35795e-05
-0.00129018
-0.00332411
-0.00644574
0.000278105
0.000517685
0.00052119
0.000545006
0.000921291
0.0010604
0.000930824
0.000817306
0.000883699
0.00125855
0.00156385
0.00143575
0.001224
0.00121968
0.00115232
0.0007727
1.99111e-05
-0.00123083
-0.00318673
-0.00622965
0.000291338
0.00051263
0.000514466
0.000499103
0.000885715
0.00107399
0.000915423
0.000777557
0.000856013
0.00119021
0.00147027
0.00137424
0.0011575
0.00112261
0.00108338
0.000747437
1.87123e-05
-0.00117135
-0.00301207
-0.00591439
0.00030065
0.000507273
0.000515409
0.000457502
0.000832406
0.0010825
0.0009116
0.000728168
0.000810256
0.00112833
0.00137203
0.00129052
0.00107664
0.00102035
0.00100218
0.000711705
1.74285e-05
-0.00111637
-0.00284201
-0.00552842
0.00030697
0.000499003
0.000523319
0.000422909
0.000759848
0.00107735
0.000921057
0.000677048
0.000743027
0.00106358
0.00128181
0.00119065
0.000978807
0.000906477
0.000903049
0.000662549
1.7481e-05
-0.00104959
-0.00263033
-0.00506949
0.000311291
0.000486649
0.00053307
0.000399865
0.000672672
0.00104788
0.00094056
0.000637366
0.000654046
0.00097942
0.001199
0.00109148
0.000866072
0.000773043
0.00078145
0.000599543
2.09117e-05
-0.00097217
-0.00241621
-0.00459452
0.000314494
0.000468068
0.000539936
0.000391154
0.000580605
0.000988036
0.000957837
0.000618388
0.000552893
0.000866012
0.00111377
0.00100446
0.000747529
0.00062368
0.000634238
0.000514935
1.9307e-05
-0.000888451
-0.00219711
-0.00408768
0.000317054
0.000444985
0.000538821
0.000396651
0.000495963
0.000896829
0.00095775
0.000621243
0.000461254
0.000724576
0.00100693
0.000925975
0.000641569
0.000468893
0.000463685
0.00039863
3.9412e-06
-0.000792107
-0.00195459
-0.0035703
0.000318732
0.000419173
0.000526369
0.000408881
0.000426913
0.000781126
0.000926793
0.000636902
0.000393849
0.000565918
0.00086599
0.00084486
0.00055524
0.000326511
0.000281736
0.000251189
-3.38047e-05
-0.000692304
-0.00169143
-0.00305164
0.000321095
0.000392583
0.000501835
0.000420125
0.00037677
0.000655805
0.000859999
0.000646944
0.000354622
0.000414971
0.000694702
0.000741825
0.000482932
0.00021118
0.00010935
8.6128e-05
-0.000102123
-0.000609328
-0.00143335
-0.00255355
0.000318633
0.000366424
0.000466106
0.000422828
0.000345445
0.000536096
0.000758915
0.000633861
0.00033895
0.000291884
0.000506579
0.000606655
0.000410875
0.000123988
-3.40593e-05
-7.72429e-05
-0.000196018
-0.000558042
-0.00119852
-0.00208633
0.000312443
0.000341104
0.00042292
0.000412287
0.000326034
0.000431617
0.000634347
0.000588825
0.000329891
0.000201943
0.000326638
0.000444835
0.000322879
5.75639e-05
-0.000141008
-0.000218432
-0.000299263
-0.000539288
-0.00100256
-0.001677
0.000301648
0.000316639
0.000376598
0.000387179
0.000309217
0.00034582
0.00050327
0.000512696
0.000309521
0.00014049
0.000175164
0.000272352
0.000212109
-3.59072e-06
-0.000214586
-0.000326021
-0.00039612
-0.000549518
-0.000863318
-0.00134425
0.000285683
0.000291554
0.000330201
0.000348829
0.000286839
0.000277402
0.000379412
0.000412344
0.000268239
9.45849e-05
5.71081e-05
0.000110492
8.53962e-05
-7.24271e-05
-0.000267034
-0.000400078
-0.000475472
-0.000576915
-0.000777805
-0.00110122
0.000264557
0.000264822
0.000284996
0.000300953
0.000254997
0.00022085
0.000269897
0.000300709
0.000205177
4.96506e-05
-3.22454e-05
-2.67784e-05
-4.33089e-05
-0.000152588
-0.00031356
-0.000449086
-0.000534128
-0.000611279
-0.000737728
-0.000941539
0.000238807
0.000235521
0.000240951
0.000248151
0.000213355
0.000168834
0.000175939
0.000190162
0.000125781
-2.37752e-06
-0.000102681
-0.000137344
-0.000161726
-0.000238913
-0.000363242
-0.000485971
-0.000574856
-0.000642125
-0.000723932
-0.000847172
0.000209158
0.000203211
0.000197621
0.000193933
0.000163931
0.000116479
9.51965e-05
8.83884e-05
3.84303e-05
-6.3521e-05
-0.000164367
-0.000224566
-0.000263225
-0.000323771
-0.000417306
-0.000519856
-0.000605159
-0.000669689
-0.000729968
-0.000803319
0.000176427
0.000168101
0.00015453
0.000140252
0.00010979
6.21216e-05
2.40392e-05
-1.86693e-06
-4.85296e-05
-0.000130972
-0.00022328
-0.000295116
-0.000346946
-0.000402214
-0.000474303
-0.000554751
-0.000629027
-0.000690821
-0.000743895
-0.00079473
0.000141589
0.000130971
0.000111539
8.82056e-05
5.42195e-05
6.32765e-06
-4.09688e-05
-8.11715e-05
-0.000129946
-0.00020021
-0.000281408
-0.00035451
-0.000414369
-0.000471289
-0.000534262
-0.000598337
-0.000653767
-0.000697563
-0.000737637
-0.00078868
0.000105813
9.29939e-05
6.90895e-05
3.85851e-05
-9.32429e-08
-4.92063e-05
-0.000101522
-0.000150976
-0.000203598
-0.00026757
-0.000339379
-0.000407455
-0.000466362
-0.000522673
-0.00058641
-0.000660121
-0.000733907
-0.0007913
-0.000814183
-0.000782705
7.05311e-05
5.56757e-05
2.82329e-05
-7.73575e-06
-5.1074e-05
-0.000102304
-0.000157783
-0.000212792
-0.000268739
-0.000330175
-0.000396742
-0.000461937
-0.000517299
-0.000558401
-0.000587852
-0.000613331
-0.000644802
-0.00069617
-0.000788612
-0.00095178
3.75109e-05
2.0915e-05
-9.33446e-06
-4.94029e-05
-9.67996e-05
-0.000150589
-0.000208498
-0.000267212
-0.000325822
-0.00038574
-0.00044787
-0.000511621
-0.000577538
-0.000646718
-0.000717571
-0.000785245
-0.000839828
-0.000865714
-0.000841844
-0.000740629
8.36226e-06
-9.34841e-06
-4.14121e-05
-8.4086e-05
-0.000134399
-0.000190529
-0.000250642
-0.000312545
-0.000374484
-0.000435387
-0.000493014
-0.000543754
-0.000583895
-0.000611978
-0.000631198
-0.000648693
-0.000676775
-0.000733923
-0.000846205
-0.00105004
-1.63927e-05
-3.65651e-05
-7.17519e-05
-0.000117964
-0.000171959
-0.000231479
-0.000294804
-0.000360662
-0.000428331
-0.000497786
-0.000569218
-0.000641985
-0.000714542
-0.000783711
-0.00084472
-0.000890574
-0.000911051
-0.000891387
-0.000810754
-0.000639358
-0.00591632
-0.00499004
-0.00227923
0.000253262
0.00218113
0.00351533
0.00431882
0.00464487
0.00454265
0.00407641
0.00336261
0.00257592
0.00188502
0.00138253
0.00106863
0.000901667
0.000848032
0.000883223
0.000965414
0.00102665
0.00100587
0.000878992
0.000667723
0.000423995
0.000196825
1.29133e-05
-0.000127234
-0.00023632
-0.000328162
-0.000415479
-0.000509493
-0.000624814
-0.000780633
-0.000992651
-0.00125577
-0.00153501
-0.00178638
-0.00198914
-0.00215611
-0.00232103
-0.00253557
-0.00284354
-0.00322753
-0.00362184
-0.00396993
-0.00427252
-0.00459546
-0.00499179
-0.00541976
-0.00579274
-0.00608064
-0.00631398
-0.00650526
-0.00661999
-0.00662119
-0.0065122
-0.00632625
-0.00608157
-0.00578016
-0.00544635
-0.0051132
-0.00480442
-0.00453064
-0.004306
-0.00413955
-0.00403456
-0.00399537
-0.00401805
-0.00407236
-0.00410759
-0.00409579
-0.00405148
-0.00400381
-0.0039669
-0.00393709
-0.00390942
-0.00388346
-0.00385945
-0.0038365
-0.003814
-0.00379207
-0.00377082
-0.00374893
-0.00372743
-0.00370665
-0.00368734
-0.00366949
-0.00365257
-0.00363567
-0.00361779
-0.00359838
-0.00357762
-0.00355645
-0.00353634
-0.00351874
-0.0035047
-0.00349459
-0.00348849
-0.00348587
-0.00348598
-0.00348811
-0.00349155
-0.00349579
-0.00350045
-0.00350529
-0.00351017
-0.00351501
-0.00351981
-0.00352458
-0.00352935
-0.00353414
-0.00353896
-0.00354389
-0.00354891
-0.00355405
-0.00355932
-0.00356473
-0.00357028
-0.00357597
-0.0035818
-0.00358777
-0.00359388
-0.00360012
-0.0036065
-0.003613
-0.00361963
-0.00362638
-0.00363326
-0.00364025
-0.00364736
-0.00365459
-0.00366192
-0.00366937
-0.00367692
-0.00368458
-0.00369233
-0.0037002
-0.00370816
-0.00371623
-0.00372439
-0.00373265
-0.00374101
-0.00374946
-0.00375801
-0.00376665
-0.00377539
-0.00378422
-0.00379314
-0.00380215
-0.00381127
-0.00382045
-0.00382977
-0.00383912
-0.00384865
-0.00385815
-0.00386791
-0.00387754
-0.00388755
-0.0038973
-0.00390758
-0.00391742
-0.00392798
-0.00393793
-0.00394873
-0.00395887
-0.0039698
-0.00398029
-0.00399114
-0.00400221
-0.00401277
-0.00402459
-0.00403478
-0.0040473
-0.00405738
-0.00407012
-0.00408075
-0.00409293
-0.00410488
-0.00411596
-0.00412933
-0.0041398
-0.0041535
-0.0041648
-0.00417735
-0.00419049
-0.00420183
-0.00421561
-0.00422775
-0.00423996
-0.0042539
-0.00426496
-0.00427818
-0.00429038
-0.00430077
-0.00431222
-0.00432196
-0.00432693
-0.00433489
-0.00433501
-0.00432993
-0.00642893
-0.00540075
-0.00254309
7.76986e-05
0.00209994
0.00353322
0.00440285
0.00473924
0.00460296
0.00409245
0.00335085
0.00255328
0.00186089
0.00136115
0.00105134
0.000886207
0.000830342
0.000862256
0.000944417
0.0010093
0.000993046
0.000868933
0.000658181
0.00041356
0.000185497
1.66737e-06
-0.000138294
-0.00024799
-0.000341521
-0.000431531
-0.000528115
-0.000644456
-0.000798381
-0.00100607
-0.00126534
-0.00154354
-0.00179458
-0.00199604
-0.00216327
-0.00232948
-0.00254307
-0.00284806
-0.00322856
-0.00361771
-0.00396108
-0.0042609
-0.00458025
-0.00497083
-0.00539232
-0.00576088
-0.00604697
-0.00628038
-0.00647373
-0.00659014
-0.00659379
-0.00648846
-0.00630655
-0.00606469
-0.00576738
-0.00543646
-0.0051079
-0.00480205
-0.00453012
-0.00430585
-0.00413963
-0.00403379
-0.00399319
-0.00401716
-0.00407116
-0.00410552
-0.00409323
-0.0040487
-0.00400172
-0.0039653
-0.00393577
-0.00390825
-0.00388243
-0.0038586
-0.00383577
-0.00381331
-0.00379139
-0.00377005
-0.00374806
-0.00372683
-0.00370629
-0.00368712
-0.00366937
-0.00365259
-0.00363586
-0.0036182
-0.00359904
-0.00357847
-0.00355741
-0.0035373
-0.00351958
-0.00350529
-0.00349499
-0.00348867
-0.00348582
-0.00348575
-0.00348775
-0.00349111
-0.00349532
-0.00349999
-0.00350487
-0.00350981
-0.00351472
-0.00351959
-0.00352442
-0.00352924
-0.00353407
-0.00353892
-0.00354387
-0.0035489
-0.00355404
-0.00355932
-0.00356473
-0.00357028
-0.00357597
-0.0035818
-0.00358777
-0.00359388
-0.00360012
-0.0036065
-0.003613
-0.00361963
-0.00362638
-0.00363326
-0.00364025
-0.00364736
-0.00365459
-0.00366192
-0.00366937
-0.00367692
-0.00368458
-0.00369234
-0.0037002
-0.00370816
-0.00371623
-0.00372439
-0.00373265
-0.00374101
-0.00374946
-0.00375801
-0.00376665
-0.00377539
-0.00378422
-0.00379314
-0.00380215
-0.00381127
-0.00382045
-0.00382977
-0.00383912
-0.00384865
-0.00385815
-0.00386791
-0.00387754
-0.00388755
-0.0038973
-0.00390758
-0.00391742
-0.00392798
-0.00393793
-0.00394873
-0.00395887
-0.0039698
-0.00398029
-0.00399114
-0.00400221
-0.00401277
-0.0040246
-0.00403477
-0.00404731
-0.00405737
-0.00407013
-0.00408075
-0.00409293
-0.00410488
-0.00411596
-0.00412934
-0.00413978
-0.00415351
-0.0041648
-0.00417735
-0.00419049
-0.00420183
-0.00421561
-0.00422775
-0.00423996
-0.00425392
-0.00426495
-0.00427819
-0.00429038
-0.00430078
-0.00431222
-0.00432198
-0.00432693
-0.00433487
-0.00433523
-0.00433004
-0.00634497
-0.00578878
-0.0031848
-0.000510028
0.00175875
0.00345361
0.004509
0.00490162
0.00471428
0.00412242
0.00332441
0.00250662
0.00181628
0.00132717
0.0010283
0.000868423
0.000810145
0.000836553
0.000916904
0.000986278
0.000977288
0.000858628
0.000650275
0.000405757
0.000177163
-6.23615e-06
-0.000145569
-0.000256756
-0.000354509
-0.000451021
-0.000555847
-0.000679079
-0.000833883
-0.00103493
-0.00128335
-0.00155086
-0.00179368
-0.00199125
-0.00216159
-0.0023403
-0.00256734
-0.00287129
-0.00323327
-0.00359898
-0.00393082
-0.00423256
-0.00455304
-0.00493021
-0.00532825
-0.00567805
-0.00595491
-0.00618227
-0.00636827
-0.00647959
-0.00648507
-0.00638869
-0.00621835
-0.00599027
-0.00570863
-0.0053952
-0.0050837
-0.00479318
-0.00453313
-0.0043179
-0.00415762
-0.00405394
-0.00401197
-0.0040285
-0.00407374
-0.00410177
-0.00408761
-0.00404478
-0.00400002
-0.0039647
-0.00393542
-0.00390792
-0.00388209
-0.00385816
-0.00383524
-0.00381286
-0.00379111
-0.00376963
-0.0037482
-0.00372672
-0.00370613
-0.00368698
-0.00366926
-0.00365246
-0.00363572
-0.00361802
-0.0035988
-0.00357825
-0.00355726
-0.0035373
-0.00351978
-0.00350572
-0.0034956
-0.00348939
-0.00348665
-0.00348663
-0.00348864
-0.00349199
-0.00349614
-0.00350073
-0.00350551
-0.00351034
-0.00351514
-0.00351991
-0.00352466
-0.00352941
-0.00353418
-0.00353899
-0.00354391
-0.00354892
-0.00355406
-0.00355932
-0.00356473
-0.00357028
-0.00357597
-0.0035818
-0.00358777
-0.00359388
-0.00360012
-0.0036065
-0.003613
-0.00361963
-0.00362638
-0.00363326
-0.00364025
-0.00364736
-0.00365459
-0.00366192
-0.00366937
-0.00367692
-0.00368458
-0.00369234
-0.0037002
-0.00370816
-0.00371623
-0.00372439
-0.00373265
-0.00374101
-0.00374946
-0.00375801
-0.00376665
-0.00377539
-0.00378422
-0.00379314
-0.00380215
-0.00381127
-0.00382045
-0.00382977
-0.00383912
-0.00384865
-0.00385815
-0.00386791
-0.00387754
-0.00388755
-0.0038973
-0.00390758
-0.00391742
-0.00392798
-0.00393793
-0.00394873
-0.00395887
-0.0039698
-0.00398029
-0.00399114
-0.00400221
-0.00401277
-0.0040246
-0.00403477
-0.00404731
-0.00405737
-0.00407013
-0.00408075
-0.00409293
-0.00410488
-0.00411596
-0.00412934
-0.00413978
-0.00415351
-0.0041648
-0.00417735
-0.00419049
-0.00420184
-0.00421561
-0.00422775
-0.00423996
-0.00425392
-0.00426496
-0.0042782
-0.0042904
-0.00430081
-0.00431225
-0.00432201
-0.00432703
-0.00433484
-0.00433578
-0.00433058
-0.00420456
-0.00435052
-0.00361999
-0.0014648
0.00112942
0.00322894
0.0045293
0.00497908
0.00474275
0.00408503
0.00324516
0.00241445
0.00173254
0.00126202
0.000981067
0.000831567
0.000774178
0.000796365
0.000874948
0.000949129
0.000948816
0.00083776
0.000633761
0.000389904
0.000159495
-2.51555e-05
-0.000165126
-0.000278998
-0.000382182
-0.000486305
-0.000598597
-0.000725035
-0.000875332
-0.00106393
-0.00129691
-0.00155326
-0.00179327
-0.00199459
-0.00217455
-0.00236797
-0.00260295
-0.00289404
-0.00322689
-0.00356787
-0.00389322
-0.00420188
-0.00452247
-0.00488059
-0.00525133
-0.0055813
-0.00584925
-0.00607007
-0.00624824
-0.00635635
-0.00636509
-0.00627857
-0.0061227
-0.00591205
-0.00565072
-0.0053585
-0.00506566
-0.00478988
-0.00454125
-0.00433316
-0.00417695
-0.00407523
-0.00403016
-0.00403778
-0.0040721
-0.00409257
-0.004077
-0.00403665
-0.00399443
-0.00396025
-0.00393126
-0.00390393
-0.00387823
-0.00385438
-0.00383157
-0.0038093
-0.00378758
-0.00376612
-0.00374529
-0.00372394
-0.00370415
-0.00368528
-0.00366768
-0.00365087
-0.00363406
-0.00361643
-0.00359753
-0.00357758
-0.00355742
-0.00353827
-0.0035214
-0.00350775
-0.0034978
-0.00349153
-0.00348851
-0.00348812
-0.00348967
-0.00349257
-0.00349636
-0.0035007
-0.00350533
-0.00351009
-0.00351488
-0.00351967
-0.00352446
-0.00352926
-0.00353408
-0.00353892
-0.00354387
-0.0035489
-0.00355404
-0.00355932
-0.00356473
-0.00357028
-0.00357597
-0.0035818
-0.00358777
-0.00359388
-0.00360012
-0.0036065
-0.003613
-0.00361963
-0.00362638
-0.00363326
-0.00364025
-0.00364736
-0.00365459
-0.00366192
-0.00366937
-0.00367692
-0.00368457
-0.00369233
-0.0037002
-0.00370816
-0.00371623
-0.00372439
-0.00373265
-0.00374101
-0.00374946
-0.00375801
-0.00376665
-0.00377539
-0.00378421
-0.00379314
-0.00380215
-0.00381127
-0.00382045
-0.00382977
-0.00383912
-0.00384865
-0.00385815
-0.00386791
-0.00387754
-0.00388755
-0.0038973
-0.00390758
-0.00391742
-0.00392798
-0.00393793
-0.00394873
-0.00395887
-0.0039698
-0.00398029
-0.00399114
-0.00400221
-0.00401277
-0.0040246
-0.00403477
-0.00404731
-0.00405737
-0.00407013
-0.00408075
-0.00409293
-0.00410489
-0.00411595
-0.00412934
-0.00413978
-0.00415351
-0.00416481
-0.00417735
-0.0041905
-0.00420184
-0.00421561
-0.00422777
-0.00423996
-0.00425392
-0.00426499
-0.0042782
-0.00429044
-0.00430083
-0.00431231
-0.00432204
-0.00432718
-0.00433483
-0.00433639
-0.00433132
-0.00696162
-0.00659216
-0.00401064
-0.00103894
0.00160688
0.00355159
0.00469606
0.0050477
0.00476698
0.00408519
0.00322788
0.00238507
0.00169888
0.00123338
0.0009625
0.000819936
0.000761473
0.00077685
0.000849352
0.000923269
0.000928197
0.000824329
0.000626131
0.000384083
0.000151299
-3.70333e-05
-0.00018009
-0.000297273
-0.000405101
-0.00051507
-0.000632022
-0.000758906
-0.000904307
-0.00108311
-0.00130477
-0.00155584
-0.00179894
-0.00200594
-0.00219064
-0.00238785
-0.00262049
-0.002897
-0.00320931
-0.00353532
-0.00385615
-0.00416551
-0.00447879
-0.00481648
-0.00516198
-0.00547376
-0.00573222
-0.00594538
-0.00611697
-0.00622293
-0.00623616
-0.00616076
-0.00601997
-0.00582533
-0.00558044
-0.00530626
-0.00503136
-0.00477174
-0.00453695
-0.0043399
-0.00419099
-0.00409224
-0.00404437
-0.00404385
-0.00406834
-0.00408227
-0.00406578
-0.00402796
-0.00398825
-0.00395522
-0.00392665
-0.00389972
-0.00387442
-0.00385085
-0.00382821
-0.0038061
-0.00378466
-0.00376372
-0.00374325
-0.0037227
-0.00370219
-0.00368351
-0.00366597
-0.00364915
-0.00363241
-0.00361507
-0.00359672
-0.00357745
-0.00355798
-0.00353944
-0.00352301
-0.0035096
-0.00349967
-0.00349325
-0.00349
-0.00348936
-0.00349071
-0.00349351
-0.00349721
-0.00350147
-0.00350602
-0.00351067
-0.00351536
-0.00352005
-0.00352475
-0.00352946
-0.00353421
-0.003539
-0.00354392
-0.00354893
-0.00355406
-0.00355932
-0.00356473
-0.00357028
-0.00357597
-0.0035818
-0.00358777
-0.00359388
-0.00360012
-0.0036065
-0.003613
-0.00361963
-0.00362638
-0.00363326
-0.00364025
-0.00364736
-0.00365459
-0.00366192
-0.00366937
-0.00367692
-0.00368457
-0.00369233
-0.0037002
-0.00370816
-0.00371623
-0.00372439
-0.00373265
-0.00374101
-0.00374946
-0.00375801
-0.00376665
-0.00377539
-0.00378421
-0.00379314
-0.00380215
-0.00381127
-0.00382045
-0.00382977
-0.00383912
-0.00384865
-0.00385815
-0.00386791
-0.00387754
-0.00388755
-0.0038973
-0.00390758
-0.00391742
-0.00392798
-0.00393793
-0.00394873
-0.00395887
-0.0039698
-0.00398029
-0.00399114
-0.00400221
-0.00401277
-0.0040246
-0.00403477
-0.00404731
-0.00405737
-0.00407012
-0.00408076
-0.00409292
-0.00410489
-0.00411595
-0.00412934
-0.00413978
-0.0041535
-0.00416482
-0.00417734
-0.0041905
-0.00420184
-0.0042156
-0.00422778
-0.00423997
-0.00425392
-0.00426502
-0.0042782
-0.00429049
-0.00430086
-0.00431238
-0.00432207
-0.00432737
-0.00433484
-0.00433697
-0.00433215
-0.0078095
-0.00694095
-0.00363229
-0.000348412
0.00220014
0.00391034
0.00481939
0.00504597
0.00473047
0.00404882
0.0031898
0.00233862
0.00164785
0.00118856
0.000930349
0.000796813
0.000738285
0.000746808
0.000812259
0.000884013
0.000892566
0.000796863
0.000607952
0.00037191
0.000139634
-5.30332e-05
-0.000201641
-0.00032317
-0.000434575
-0.000548019
-0.000667796
-0.000794726
-0.000936869
-0.0011092
-0.00132254
-0.00156819
-0.00181143
-0.00202004
-0.00220297
-0.0023977
-0.0026287
-0.00290004
-0.00320094
-0.00351203
-0.00382025
-0.00412142
-0.00442701
-0.00474909
-0.00507171
-0.00536506
-0.00561327
-0.00581968
-0.00598528
-0.00608872
-0.00610701
-0.00604307
-0.00591593
-0.00573554
-0.00550699
-0.00525257
-0.00499897
-0.00475771
-0.00453701
-0.00435044
-0.00420759
-0.00411034
-0.00405946
-0.00405155
-0.0040668
-0.00407421
-0.00405636
-0.00402052
-0.00398288
-0.00395076
-0.00392253
-0.00389589
-0.00387076
-0.00384719
-0.00382462
-0.00380275
-0.00378152
-0.00376067
-0.00374003
-0.00371971
-0.0036997
-0.00368138
-0.003664
-0.00364731
-0.00363073
-0.00361362
-0.00359558
-0.00357677
-0.00355788
-0.00353996
-0.0035241
-0.00351114
-0.00350153
-0.00349526
-0.00349201
-0.00349127
-0.00349239
-0.00349486
-0.00349822
-0.00350213
-0.00350638
-0.00351083
-0.00351538
-0.00351999
-0.00352467
-0.00352938
-0.00353415
-0.00353894
-0.00354389
-0.0035489
-0.00355404
-0.00355932
-0.00356473
-0.00357028
-0.00357597
-0.0035818
-0.00358777
-0.00359387
-0.00360012
-0.00360649
-0.003613
-0.00361963
-0.00362638
-0.00363326
-0.00364025
-0.00364736
-0.00365458
-0.00366192
-0.00366936
-0.00367692
-0.00368457
-0.00369233
-0.0037002
-0.00370816
-0.00371623
-0.00372439
-0.00373265
-0.00374101
-0.00374946
-0.00375801
-0.00376665
-0.00377539
-0.00378421
-0.00379314
-0.00380215
-0.00381127
-0.00382045
-0.00382977
-0.00383912
-0.00384865
-0.00385815
-0.00386791
-0.00387754
-0.00388755
-0.0038973
-0.00390758
-0.00391742
-0.00392798
-0.00393793
-0.00394873
-0.00395887
-0.0039698
-0.00398029
-0.00399114
-0.00400221
-0.00401277
-0.0040246
-0.00403477
-0.00404731
-0.00405737
-0.00407012
-0.00408076
-0.00409292
-0.0041049
-0.00411594
-0.00412935
-0.00413979
-0.00415349
-0.00416483
-0.00417733
-0.00419051
-0.00420184
-0.0042156
-0.00422779
-0.00423998
-0.00425392
-0.00426506
-0.0042782
-0.00429055
-0.0043009
-0.00431248
-0.0043221
-0.00432758
-0.0043349
-0.0043375
-0.00433301
-0.0080687
-0.00730835
-0.00386565
-0.000419602
0.00222623
0.00395977
0.00483322
0.00500113
0.00465765
0.00397777
0.00312482
0.00227217
0.00157904
0.00112695
0.000884798
0.000764295
0.000707631
0.000708478
0.000764958
0.000832886
0.000844098
0.00075741
0.000580554
0.000354736
0.000126858
-6.90697e-05
-0.000225006
-0.000353312
-0.0004693
-0.000585657
-0.000707193
-0.000833866
-0.000972449
-0.00113827
-0.00134338
-0.00158089
-0.00181994
-0.00202799
-0.00221099
-0.00240753
-0.00264243
-0.00291126
-0.00319605
-0.00348416
-0.00377472
-0.00406963
-0.00437265
-0.00468207
-0.00498168
-0.00525442
-0.00549215
-0.0056933
-0.00585258
-0.00595188
-0.00597452
-0.00592213
-0.00580759
-0.00564027
-0.00542951
-0.00519697
-0.00496457
-0.00474079
-0.00453369
-0.00435708
-0.00422007
-0.00412456
-0.00407141
-0.00405705
-0.0040637
-0.00406473
-0.00404532
-0.00401119
-0.0039755
-0.0039443
-0.00391645
-0.00389016
-0.00386534
-0.003842
-0.00381965
-0.00379796
-0.00377685
-0.00375619
-0.00373609
-0.00371658
-0.00369666
-0.00367891
-0.00366177
-0.0036452
-0.00362869
-0.00361173
-0.00359407
-0.00357588
-0.0035578
-0.00354074
-0.00352562
-0.00351317
-0.00350376
-0.00349742
-0.0034939
-0.00349276
-0.00349349
-0.00349562
-0.00349874
-0.0035025
-0.00350667
-0.00351106
-0.00351559
-0.00352018
-0.00352482
-0.0035295
-0.00353423
-0.00353898
-0.00354392
-0.00354891
-0.00355405
-0.00355931
-0.00356472
-0.00357027
-0.00357596
-0.00358179
-0.00358776
-0.00359387
-0.00360011
-0.00360649
-0.00361299
-0.00361962
-0.00362637
-0.00363325
-0.00364024
-0.00364735
-0.00365458
-0.00366192
-0.00366936
-0.00367691
-0.00368457
-0.00369233
-0.00370019
-0.00370816
-0.00371622
-0.00372439
-0.00373265
-0.00374101
-0.00374946
-0.00375801
-0.00376665
-0.00377539
-0.00378421
-0.00379314
-0.00380215
-0.00381127
-0.00382045
-0.00382977
-0.00383912
-0.00384865
-0.00385815
-0.00386791
-0.00387754
-0.00388755
-0.00389729
-0.00390758
-0.00391741
-0.00392798
-0.00393793
-0.00394873
-0.00395887
-0.0039698
-0.00398029
-0.00399114
-0.00400221
-0.00401277
-0.0040246
-0.00403478
-0.00404731
-0.00405737
-0.00407012
-0.00408076
-0.00409291
-0.00410491
-0.00411594
-0.00412935
-0.00413979
-0.00415349
-0.00416484
-0.00417732
-0.00419052
-0.00420185
-0.00421561
-0.0042278
-0.00424
-0.00425391
-0.00426512
-0.0042782
-0.00429062
-0.00430093
-0.00431259
-0.00432213
-0.00432779
-0.00433499
-0.00433797
-0.00433389
-0.00831917
-0.00776804
-0.00441824
-0.000815232
0.00204617
0.0039447
0.00489832
0.00506736
0.0046847
0.00396779
0.00309217
0.00222533
0.00152409
0.00107678
0.000853788
0.00075275
0.000700582
0.000690108
0.000730736
0.000789184
0.000800261
0.000720804
0.000555432
0.000341709
0.000121678
-7.44918e-05
-0.000237458
-0.000375711
-0.000500981
-0.000622167
-0.000744088
-0.000868683
-0.00100192
-0.00116005
-0.00135733
-0.00158822
-0.00182372
-0.00203286
-0.00222016
-0.00242054
-0.00265534
-0.00291362
-0.00317603
-0.003442
-0.00372282
-0.00401803
-0.00431683
-0.00460968
-0.00488615
-0.00513887
-0.00536554
-0.00556151
-0.00571503
-0.00580966
-0.00583576
-0.00579504
-0.00569303
-0.0055386
-0.00534701
-0.00513724
-0.00492479
-0.00471727
-0.00452362
-0.00435772
-0.00422801
-0.00413556
-0.00408085
-0.00406065
-0.00405948
-0.0040548
-0.00403418
-0.00400188
-0.00396815
-0.00393792
-0.00391059
-0.00388487
-0.00386053
-0.00383746
-0.0038153
-0.00379389
-0.00377323
-0.00375316
-0.00373348
-0.00371405
-0.00369536
-0.00367648
-0.00365943
-0.00364291
-0.00362654
-0.00360992
-0.00359281
-0.00357534
-0.00355804
-0.00354167
-0.00352707
-0.00351493
-0.00350566
-0.00349933
-0.00349576
-0.00349452
-0.00349512
-0.00349709
-0.00349999
-0.00350352
-0.00350745
-0.00351163
-0.00351596
-0.0035204
-0.00352494
-0.00352956
-0.00353426
-0.00353898
-0.00354388
-0.00354889
-0.00355403
-0.0035593
-0.00356471
-0.00357026
-0.00357595
-0.00358178
-0.00358775
-0.00359386
-0.0036001
-0.00360648
-0.00361298
-0.00361961
-0.00362637
-0.00363324
-0.00364024
-0.00364735
-0.00365457
-0.00366191
-0.00366936
-0.00367691
-0.00368456
-0.00369233
-0.00370019
-0.00370816
-0.00371622
-0.00372439
-0.00373265
-0.00374101
-0.00374946
-0.00375801
-0.00376665
-0.00377539
-0.00378421
-0.00379314
-0.00380214
-0.00381127
-0.00382045
-0.00382977
-0.00383912
-0.00384865
-0.00385815
-0.00386791
-0.00387754
-0.00388755
-0.00389729
-0.00390758
-0.00391741
-0.00392798
-0.00393793
-0.00394873
-0.00395887
-0.0039698
-0.00398029
-0.00399114
-0.00400221
-0.00401277
-0.0040246
-0.00403478
-0.00404731
-0.00405738
-0.00407011
-0.00408077
-0.00409291
-0.00410491
-0.00411594
-0.00412935
-0.0041398
-0.00415348
-0.00416486
-0.00417732
-0.00419053
-0.00420185
-0.00421561
-0.0042278
-0.00424002
-0.0042539
-0.00426518
-0.0042782
-0.0042907
-0.00430097
-0.00431271
-0.00432217
-0.004328
-0.00433513
-0.0043384
-0.00433477
-0.00794134
-0.00766349
-0.00472509
-0.0011197
0.00189357
0.00393184
0.0049701
0.00514324
0.00471215
0.00394459
0.00304355
0.00216636
0.00145684
0.00100957
0.000804339
0.000729425
0.00069032
0.000670046
0.000688886
0.000731824
0.000740992
0.000668525
0.000513185
0.000310486
0.000101124
-8.83498e-05
-0.000251932
-0.000399639
-0.000538883
-0.000668828
-0.000790649
-0.000909799
-0.00103515
-0.00118407
-0.00137433
-0.00160189
-0.00183569
-0.00204497
-0.00223276
-0.00243154
-0.00266173
-0.0029094
-0.00315532
-0.0034057
-0.00367863
-0.00397023
-0.00425881
-0.00453312
-0.00478949
-0.00502505
-0.00523985
-0.00542841
-0.00557635
-0.00566741