/*--------------------------------*- C++ -*----------------------------------*\
| =========                 |                                                 |
| \\      /  F ield         | OpenFOAM: The Open Source CFD Toolbox           |
|  \\    /   O peration     | Version:  v2012                                 |
|   \\  /    A nd           | Website:  www.openfoam.com                      |
|    \\/     M anipulation  |                                                 |
\*---------------------------------------------------------------------------*/
FoamFile
{
    version     2.0;
    format      ascii;
    class       surfaceScalarField;
    location    "0.2";
    object      phi;
}
// * * * * * * * * * * * * * * * * * * * * * * * * * * * * * * * * * * * * * //

dimensions      [0 3 -1 0 0 0 0];
oriented        oriented;


internalField   nonuniform List<scalar> 
17340
(
3.87599e-06
-1.05964e-07
3.88718e-06
1.22166e-07
3.88248e-06
-1.86443e-07
3.88546e-06
9.14353e-08
3.87018e-06
4.53604e-08
3.87144e-06
1.197e-07
3.86583e-06
4.9948e-08
3.87683e-06
-1.13614e-08
3.87561e-06
-1.46126e-07
3.88967e-06
-1.00018e-07
3.88948e-06
-9.89959e-08
3.89528e-06
-6.85278e-08
3.89222e-06
-2.38323e-08
3.89079e-06
1.5192e-08
3.88791e-06
2.96407e-08
3.88289e-06
4.48308e-08
3.87639e-06
4.16931e-08
3.87045e-06
5.40101e-08
3.85586e-06
4.75899e-08
3.75987e-08
3.83819e-06
4.18011e-06
-1.00209e-07
4.19534e-06
1.06935e-07
4.18474e-06
-1.75849e-07
4.19365e-06
8.25274e-08
4.17946e-06
5.95504e-08
4.18748e-06
1.11682e-07
4.17998e-06
5.74454e-08
4.18851e-06
-1.98862e-08
4.18113e-06
-1.38747e-07
4.1894e-06
-1.08284e-07
4.18679e-06
-9.63886e-08
4.1893e-06
-7.1038e-08
4.18992e-06
-2.44589e-08
4.18636e-06
1.87571e-08
4.19198e-06
2.40251e-08
4.18446e-06
5.23458e-08
4.18576e-06
4.0392e-08
4.17632e-06
6.34493e-08
4.17024e-06
5.36722e-08
5.68178e-08
4.15102e-06
4.51423e-06
-9.43798e-08
4.52618e-06
9.49921e-08
4.5122e-06
-1.61878e-07
4.52155e-06
7.31853e-08
4.51291e-06
6.81888e-08
4.5236e-06
1.00985e-07
4.5188e-06
6.22476e-08
4.52408e-06
-2.51621e-08
4.51241e-06
-1.27076e-07
4.5143e-06
-1.10178e-07
4.50781e-06
-8.99024e-08
4.5091e-06
-7.23233e-08
4.50551e-06
-2.08699e-08
4.50791e-06
1.63583e-08
4.50806e-06
2.38793e-08
4.50908e-06
5.13213e-08
4.5125e-06
3.69701e-08
4.50226e-06
7.36913e-08
4.48591e-06
7.00271e-08
7.4625e-08
4.4681e-06
4.8756e-06
-8.90295e-08
4.88619e-06
8.43972e-08
4.87042e-06
-1.46106e-07
4.88006e-06
6.3542e-08
4.87346e-06
7.47939e-08
4.88623e-06
8.82171e-08
4.88213e-06
6.6343e-08
4.88741e-06
-3.04415e-08
4.87326e-06
-1.12922e-07
4.87372e-06
-1.10641e-07
4.86178e-06
-7.79583e-08
4.86685e-06
-7.7399e-08
4.85336e-06
-7.37487e-09
4.86858e-06
1.13173e-09
4.85357e-06
3.88918e-08
4.86578e-06
3.91108e-08
4.86198e-06
4.07732e-08
4.91248e-06
2.31897e-08
4.96748e-06
1.50263e-08
6.17893e-09
5.03593e-06
5.26518e-06
-8.35655e-08
5.27606e-06
7.35204e-08
5.25937e-06
-1.29415e-07
5.26918e-06
5.37345e-08
5.26335e-06
8.06238e-08
5.27587e-06
7.56975e-08
5.27355e-06
6.86607e-08
5.27639e-06
-3.32842e-08
5.26576e-06
-1.02293e-07
5.25928e-06
-1.04156e-07
5.25551e-06
-7.41941e-08
5.24647e-06
-6.83574e-08
5.24869e-06
-9.59693e-09
5.24258e-06
7.24276e-09
5.24695e-06
3.4524e-08
5.24844e-06
3.76196e-08
5.24951e-06
3.97003e-08
5.24033e-06
3.23756e-08
5.22465e-06
3.07079e-08
2.32714e-08
5.20755e-06
5.68563e-06
-7.77335e-08
5.69714e-06
6.20113e-08
5.67992e-06
-1.12199e-07
5.68985e-06
4.38022e-08
5.68416e-06
8.6314e-08
5.69646e-06
6.33954e-08
5.69471e-06
7.04183e-08
5.69652e-06
-3.50977e-08
5.68703e-06
-9.28027e-08
5.67899e-06
-9.61192e-08
5.6762e-06
-7.13973e-08
5.66437e-06
-5.65275e-08
5.67049e-06
-1.57227e-08
5.65916e-06
1.85729e-08
5.66948e-06
2.42084e-08
5.66131e-06
4.57852e-08
5.66493e-06
3.60792e-08
5.65928e-06
3.8026e-08
5.6575e-06
3.24896e-08
3.98115e-08
5.64096e-06
6.13977e-06
-7.16331e-08
6.15165e-06
5.01324e-08
6.13448e-06
-9.50311e-08
6.14389e-06
3.43933e-08
6.13918e-06
9.10254e-08
6.1497e-06
5.28752e-08
6.15012e-06
6.99941e-08
6.14937e-06
-3.43405e-08
6.142e-06
-8.54353e-08
6.13248e-06
-8.66009e-08
6.12889e-06
-6.78095e-08
6.11988e-06
-4.75178e-08
6.11885e-06
-1.46878e-08
6.1157e-06
2.17184e-08
6.11563e-06
2.42792e-08
6.11591e-06
4.5504e-08
6.11491e-06
3.708e-08
6.11048e-06
4.24557e-08
6.10537e-06
3.76048e-08
4.68581e-08
6.09832e-06
6.63029e-06
-6.53598e-08
6.6421e-06
3.83234e-08
6.62576e-06
-7.86921e-08
6.63377e-06
2.63791e-08
6.6311e-06
9.36936e-08
6.63856e-06
4.54247e-08
6.64237e-06
6.61755e-08
6.6375e-06
-2.9464e-08
6.63448e-06
-8.24143e-08
6.62043e-06
-7.25496e-08
6.61966e-06
-6.70395e-08
6.60928e-06
-3.71411e-08
6.60731e-06
-1.27186e-08
6.60493e-06
2.40974e-08
6.60383e-06
2.53819e-08
6.60387e-06
4.54622e-08
6.60315e-06
3.78022e-08
6.59944e-06
4.61627e-08
6.59049e-06
4.65561e-08
5.46096e-08
6.58274e-06
7.16004e-06
-5.89734e-08
7.17163e-06
2.67403e-08
7.15632e-06
-6.3385e-08
7.16303e-06
1.96649e-08
7.16179e-06
9.49415e-08
7.16754e-06
3.96745e-08
7.17206e-06
6.16496e-08
7.16771e-06
-2.51169e-08
7.1614e-06
-7.60987e-08
7.15387e-06
-6.50249e-08
7.14275e-06
-5.59138e-08
7.14433e-06
-3.87259e-08
7.13033e-06
1.28704e-09
7.1375e-06
1.69224e-08
7.12839e-06
3.44973e-08
7.13222e-06
4.16267e-08
7.12729e-06
4.27312e-08
7.13915e-06
3.43044e-08
7.15106e-06
3.46484e-08
3.38866e-08
7.17178e-06
7.73245e-06
-5.28186e-08
7.74268e-06
1.65074e-08
7.72994e-06
-5.0645e-08
7.73381e-06
1.57978e-08
7.73595e-06
9.28025e-08
7.73753e-06
3.80966e-08
7.74549e-06
5.36843e-08
7.73772e-06
-1.73493e-08
7.73467e-06
-7.30468e-08
7.72327e-06
-5.362e-08
7.71651e-06
-4.91531e-08
7.71125e-06
-3.34718e-08
7.70538e-06
7.1565e-09
7.70258e-06
1.97222e-08
7.70193e-06
3.5153e-08
7.70165e-06
4.19012e-08
7.69982e-06
4.45607e-08
7.69586e-06
3.82716e-08
7.68738e-06
4.31195e-08
4.16808e-08
7.67959e-06
8.35046e-06
-4.68132e-08
8.35953e-06
7.4352e-09
8.3488e-06
-3.99218e-08
8.35106e-06
1.35391e-08
8.35438e-06
8.94846e-08
8.35521e-06
3.72704e-08
8.36221e-06
4.66846e-08
8.3561e-06
-1.12402e-08
8.3504e-06
-6.73531e-08
8.34159e-06
-4.48079e-08
8.33324e-06
-4.08041e-08
8.32629e-06
-2.65208e-08
8.32461e-06
8.84264e-09
8.31676e-06
2.75646e-08
8.3197e-06
3.2216e-08
8.31614e-06
4.54582e-08
8.31443e-06
4.6271e-08
8.30931e-06
4.33952e-08
8.31081e-06
4.1619e-08
4.25298e-08
8.30996e-06
9.01828e-06
-4.14416e-08
9.02475e-06
9.60131e-10
9.01738e-06
-3.25559e-08
9.01742e-06
1.35062e-08
9.02237e-06
8.45312e-08
9.02207e-06
3.75718e-08
9.02834e-06
4.04104e-08
9.02349e-06
-6.38332e-09
9.01543e-06
-5.92923e-08
9.0099e-06
-3.92849e-08
8.99776e-06
-2.86578e-08
8.99366e-06
-2.24237e-08
8.98949e-06
1.30085e-08
8.98476e-06
3.2297e-08
8.98255e-06
3.44315e-08
8.98206e-06
4.59393e-08
8.97913e-06
4.92064e-08
8.9774e-06
4.51209e-08
8.97521e-06
4.3815e-08
4.33707e-08
8.97437e-06
9.73922e-06
-3.65549e-08
9.7435e-06
-3.32824e-09
9.73849e-06
-2.75393e-08
9.73783e-06
1.41606e-08
9.74301e-06
7.93548e-08
9.7425e-06
3.80771e-08
9.74787e-06
3.50474e-08
9.74346e-06
-1.97564e-09
9.73489e-06
-5.07234e-08
9.72958e-06
-3.39713e-08
9.71797e-06
-1.7054e-08
9.71258e-06
-1.70342e-08
9.70891e-06
1.66821e-08
9.70531e-06
3.59007e-08
9.70042e-06
3.93171e-08
9.70062e-06
4.5742e-08
9.69837e-06
5.14564e-08
9.69864e-06
4.48465e-08
9.70122e-06
4.12416e-08
4.02073e-08
9.70438e-06
1.0518e-05
-3.24405e-08
1.05196e-05
-4.96893e-09
1.05167e-05
-2.4666e-08
1.05163e-05
1.4609e-08
1.05207e-05
7.49713e-08
1.0521e-05
3.77727e-08
1.05246e-05
3.14008e-08
1.0521e-05
1.67593e-09
1.05119e-05
-4.16599e-08
1.05065e-05
-2.8555e-08
1.04965e-05
-7.09679e-09
1.04887e-05
-9.19131e-09
1.04865e-05
1.89106e-08
1.04826e-05
3.97104e-08
1.0478e-05
4.39653e-08
1.04772e-05
4.65641e-08
1.04762e-05
5.24134e-08
1.04738e-05
4.73149e-08
1.04724e-05
4.25878e-08
3.93088e-08
1.04733e-05
1.13587e-05
-2.9007e-08
1.13583e-05
-4.57074e-09
1.13565e-05
-2.28e-08
1.13571e-05
1.39708e-08
1.13608e-05
7.13309e-08
1.13608e-05
3.77211e-08
1.13642e-05
2.80114e-08
1.13601e-05
5.74268e-09
1.13514e-05
-3.28839e-08
1.13452e-05
-2.23885e-08
1.13376e-05
5.25634e-10
1.13276e-05
8.14409e-10
1.1326e-05
2.04524e-08
1.13225e-05
4.32383e-08
1.13188e-05
4.76798e-08
1.13166e-05
4.87463e-08
1.1316e-05
5.30255e-08
1.13117e-05
5.1603e-08
1.13075e-05
4.68041e-08
3.99161e-08
1.13069e-05
1.22665e-05
-2.61623e-08
1.22648e-05
-2.83715e-09
1.22627e-05
-2.07063e-08
1.22652e-05
1.14496e-08
1.2268e-05
6.85513e-08
1.22677e-05
3.79577e-08
1.22705e-05
2.52903e-08
1.2267e-05
9.15083e-09
1.22571e-05
-2.29614e-08
1.22519e-05
-1.71996e-08
1.22445e-05
7.92026e-09
1.22356e-05
9.70783e-09
1.22318e-05
2.42594e-08
1.22305e-05
4.46081e-08
1.22263e-05
5.18693e-08
1.22237e-05
5.1274e-08
1.22223e-05
5.4521e-08
1.22222e-05
5.16727e-08
1.22248e-05
4.41553e-08
3.72993e-08
1.22274e-05
1.32465e-05
-2.37152e-08
1.32442e-05
-5.71566e-10
1.3241e-05
-1.75174e-08
1.32452e-05
7.27128e-09
1.32483e-05
6.54161e-08
1.32466e-05
3.97328e-08
1.32492e-05
2.26269e-08
1.32462e-05
1.2153e-08
1.32361e-05
-1.28627e-08
1.32304e-05
-1.1515e-08
1.32245e-05
1.39007e-08
1.32162e-05
1.79432e-08
1.32113e-05
2.91971e-08
1.32106e-05
4.53368e-08
1.3207e-05
5.54617e-08
1.32043e-05
5.39568e-08
1.32034e-05
5.53805e-08
1.32032e-05
5.19416e-08
1.3201e-05
4.63239e-08
3.97382e-08
1.31986e-05
1.43044e-05
-2.13865e-08
1.43025e-05
1.3188e-09
1.42976e-05
-1.26233e-08
1.43028e-05
2.06071e-09
1.43072e-05
6.10048e-08
1.43039e-05
4.31003e-08
1.43056e-05
2.08571e-08
1.43037e-05
1.40533e-08
1.4294e-05
-3.16516e-09
1.42869e-05
-4.39362e-09
1.42828e-05
1.80135e-08
1.42751e-05
2.56334e-08
1.42703e-05
3.39725e-08
1.42688e-05
4.68597e-08
1.42669e-05
5.74267e-08
1.4264e-05
5.68059e-08
1.42629e-05
5.64504e-08
1.42618e-05
5.30963e-08
1.42616e-05
4.64832e-08
3.66904e-08
1.42647e-05
1.54465e-05
-1.89349e-08
1.54457e-05
2.18856e-09
1.54392e-05
-6.10237e-09
1.54441e-05
-2.86076e-09
1.54506e-05
5.44953e-08
1.54463e-05
4.73583e-08
1.5446e-05
2.12246e-08
1.54457e-05
1.43589e-08
1.54368e-05
5.70353e-09
1.54286e-05
3.75212e-09
1.54251e-05
2.15489e-08
1.54191e-05
3.1635e-08
1.54143e-05
3.87456e-08
1.54126e-05
4.86316e-08
1.54114e-05
5.85446e-08
1.54092e-05
5.90844e-08
1.54077e-05
5.78979e-08
1.54058e-05
5.49649e-08
1.54022e-05
5.01368e-08
3.84456e-08
1.54004e-05
1.66797e-05
-1.61602e-08
1.66802e-05
1.67506e-09
1.66727e-05
1.44281e-09
1.66758e-05
-6.00295e-09
1.66846e-05
4.56704e-08
1.66807e-05
5.12674e-08
1.66777e-05
2.42625e-08
1.66779e-05
1.41636e-08
1.66712e-05
1.2335e-08
1.66626e-05
1.24311e-08
1.66584e-05
2.56953e-08
1.66545e-05
3.5524e-08
1.66501e-05
4.32065e-08
1.66484e-05
5.02619e-08
1.66476e-05
5.93784e-08
1.66461e-05
6.06157e-08
1.66445e-05
5.94415e-08
1.66448e-05
5.47141e-08
1.66472e-05
4.77558e-08
3.69274e-08
1.66487e-05
1.80112e-05
-1.30027e-08
1.8013e-05
-8.28872e-11
1.80055e-05
8.93723e-09
1.80057e-05
-6.22344e-09
1.80161e-05
3.5296e-08
1.80142e-05
5.31727e-08
1.80085e-05
2.99237e-08
1.8008e-05
1.47229e-08
1.8004e-05
1.63382e-08
1.79959e-05
2.04622e-08
1.79908e-05
3.0847e-08
1.79881e-05
3.81763e-08
1.79849e-05
4.64742e-08
1.79834e-05
5.17207e-08
1.7983e-05
5.97412e-08
1.79823e-05
6.13704e-08
1.79817e-05
6.00055e-08
1.79817e-05
5.47688e-08
1.79811e-05
4.83563e-08
3.82479e-08
1.79798e-05
1.94492e-05
-9.5536e-09
1.94517e-05
-2.56166e-09
1.94454e-05
1.52351e-08
1.94424e-05
-3.16827e-09
1.94528e-05
2.48614e-08
1.9454e-05
5.20133e-08
1.94469e-05
3.69768e-08
1.94442e-05
1.73893e-08
1.94424e-05
1.81737e-08
1.94363e-05
2.65688e-08
1.94307e-05
3.64706e-08
1.94279e-05
4.09546e-08
1.94264e-05
4.79543e-08
1.94253e-05
5.28512e-08
1.94257e-05
5.93135e-08
1.94257e-05
6.14227e-08
1.94259e-05
5.9789e-08
1.94255e-05
5.5139e-08
1.94253e-05
4.85475e-08
3.83309e-08
1.94252e-05
2.10023e-05
-6.03055e-09
2.10047e-05
-5.00168e-09
2.10005e-05
1.94673e-08
2.09948e-05
2.4914e-09
2.10034e-05
1.62636e-08
2.10077e-05
4.76938e-08
2.10012e-05
4.3514e-08
2.09961e-05
2.25085e-08
2.09948e-05
1.94394e-08
2.09915e-05
2.98476e-08
2.09864e-05
4.16522e-08
2.09832e-05
4.40968e-08
2.09826e-05
4.85806e-08
2.09825e-05
5.28966e-08
2.09837e-05
5.81769e-08
2.09845e-05
6.06202e-08
2.09854e-05
5.89024e-08
2.09863e-05
5.42001e-08
2.09877e-05
4.71783e-08
3.78781e-08
2.09881e-05
2.26796e-05
-2.73178e-09
2.26813e-05
-6.62982e-09
2.26795e-05
2.12144e-08
2.26725e-05
9.54609e-09
2.26777e-05
1.0985e-08
2.26844e-05
4.10018e-08
2.26801e-05
4.78341e-08
2.26732e-05
2.9396e-08
2.2671e-05
2.1628e-08
2.26701e-05
3.07253e-08
2.26669e-05
4.49191e-08
2.26635e-05
4.75215e-08
2.2663e-05
4.90432e-08
2.26639e-05
5.19547e-08
2.2666e-05
5.61428e-08
2.26678e-05
5.87662e-08
2.26694e-05
5.7278e-08
2.26713e-05
5.23966e-08
2.26731e-05
4.53038e-08
3.62031e-08
2.26748e-05
2.44912e-05
6.28222e-11
2.44915e-05
-6.93407e-09
2.4492e-05
2.07087e-08
2.4485e-05
1.65469e-08
2.44864e-05
9.5238e-09
2.44939e-05
3.3527e-08
2.44927e-05
4.90233e-08
2.44856e-05
3.65243e-08
2.44818e-05
2.53973e-08
2.4482e-05
3.05534e-08
2.44813e-05
4.55895e-08
2.44785e-05
5.03546e-08
2.44779e-05
4.95743e-08
2.44793e-05
5.06454e-08
2.44821e-05
5.32504e-08
2.44851e-05
5.58022e-08
2.44876e-05
5.47986e-08
2.44898e-05
5.02037e-08
2.44914e-05
4.36628e-08
3.52424e-08
2.44924e-05
2.64475e-05
2.1685e-09
2.64463e-05
-5.77444e-09
2.64483e-05
1.86978e-08
2.64427e-05
2.21577e-08
2.64408e-05
1.13903e-08
2.64473e-05
2.70547e-08
2.64492e-05
4.71756e-08
2.64435e-05
4.22258e-08
2.64385e-05
3.03689e-08
2.64382e-05
3.08124e-08
2.64398e-05
4.40426e-08
2.64387e-05
5.14089e-08
2.64381e-05
5.01949e-08
2.64395e-05
4.92224e-08
2.64427e-05
5.00437e-08
2.64466e-05
5.18846e-08
2.645e-05
5.14069e-08
2.64527e-05
4.74911e-08
2.64549e-05
4.15357e-08
3.37459e-08
2.64564e-05
2.856e-05
3.53326e-09
2.85576e-05
-3.39825e-09
2.85601e-05
1.61554e-08
2.85567e-05
2.56062e-08
2.85527e-05
1.53196e-08
2.85569e-05
2.28882e-08
2.85609e-05
4.32027e-08
2.85577e-05
4.54106e-08
2.85526e-05
3.55058e-08
2.85512e-05
3.21359e-08
2.85538e-05
4.1473e-08
2.85549e-05
5.02709e-08
2.85549e-05
5.02282e-08
2.85563e-05
4.78269e-08
2.85594e-05
4.69612e-08
2.85637e-05
4.75368e-08
2.85678e-05
4.73208e-08
2.85712e-05
4.40903e-08
2.85739e-05
3.88729e-08
3.23783e-08
2.85753e-05
3.0841e-05
4.23946e-09
3.08379e-05
-3.53249e-10
3.08401e-05
1.39802e-08
3.08389e-05
2.68516e-08
3.08344e-05
1.97685e-08
3.0836e-05
2.13393e-08
3.08406e-05
3.85147e-08
3.08402e-05
4.58972e-08
3.08361e-05
3.95539e-08
3.0834e-05
3.42164e-08
3.08363e-05
3.91611e-08
3.08392e-05
4.74033e-08
3.08405e-05
4.8959e-08
3.08419e-05
4.63842e-08
3.08448e-05
4.41141e-08
3.08489e-05
4.3358e-08
3.08532e-05
4.3038e-08
3.08567e-05
4.0596e-08
3.08589e-05
3.66823e-08
3.08867e-08
3.08604e-05
3.33039e-05
4.45847e-09
3.33008e-05
2.76418e-09
3.33021e-05
1.26931e-08
3.33025e-05
2.63561e-08
3.32988e-05
2.35041e-08
3.32983e-05
2.18657e-08
3.33024e-05
3.43931e-08
3.33042e-05
4.41503e-08
3.3302e-05
4.17033e-08
3.32999e-05
3.63465e-08
3.33014e-05
3.76114e-08
3.33051e-05
4.37485e-08
3.33077e-05
4.63365e-08
3.33097e-05
4.44371e-08
3.33122e-05
4.16067e-08
3.33159e-05
3.96537e-08
3.332e-05
3.89271e-08
3.33236e-05
3.70065e-08
3.33262e-05
3.40397e-08
2.88886e-08
3.33282e-05
3.59632e-05
4.38459e-09
3.59605e-05
5.47732e-09
3.59609e-05
1.23292e-08
3.59623e-05
2.49142e-08
3.596e-05
2.58105e-08
3.59584e-05
2.34596e-08
3.59613e-05
3.14696e-08
3.59644e-05
4.10718e-08
3.59643e-05
4.18287e-08
3.59629e-05
3.77196e-08
3.59639e-05
3.66252e-08
3.59674e-05
4.01979e-08
3.5971e-05
4.28227e-08
3.59736e-05
4.17773e-08
3.59761e-05
3.91445e-08
3.59792e-05
3.65309e-08
3.59829e-05
3.52266e-08
3.59863e-05
3.35906e-08
3.59891e-05
3.1281e-08
2.71579e-08
3.59908e-05
3.88347e-05
4.18292e-09
3.88326e-05
7.51378e-09
3.88323e-05
1.26289e-08
3.88341e-05
2.31727e-08
3.88333e-05
2.66068e-08
3.88316e-05
2.50837e-08
3.88334e-05
2.96725e-08
3.88369e-05
3.76097e-08
3.88385e-05
4.02726e-08
3.88384e-05
3.78054e-08
3.88392e-05
3.58065e-08
3.88423e-05
3.70847e-08
3.88461e-05
3.90129e-08
3.88493e-05
3.8543e-08
3.88521e-05
3.64428e-08
3.88548e-05
3.37881e-08
3.88581e-05
3.19484e-08
3.88613e-05
3.03288e-08
3.88642e-05
2.84067e-08
2.52834e-08
3.88661e-05
4.19353e-05
3.95681e-09
4.1934e-05
8.80707e-09
4.19334e-05
1.31667e-08
4.19351e-05
2.15344e-08
4.19355e-05
2.61853e-08
4.19346e-05
2.60128e-08
4.19357e-05
2.85308e-08
4.1939e-05
3.43466e-08
4.19417e-05
3.75843e-08
4.19429e-05
3.65714e-08
4.1944e-05
3.46442e-08
4.19467e-05
3.43982e-08
4.19504e-05
3.53216e-08
4.19539e-05
3.50365e-08
4.19569e-05
3.34306e-08
4.19596e-05
3.11027e-08
4.19625e-05
2.91051e-08
4.19653e-05
2.75146e-08
4.19678e-05
2.58834e-08
2.3317e-08
4.19698e-05
4.52834e-05
3.74389e-09
4.52828e-05
9.42268e-09
4.52824e-05
1.35655e-08
4.52838e-05
2.00919e-08
4.52851e-05
2.49325e-08
4.52851e-05
2.59459e-08
4.52861e-05
2.75039e-08
4.52891e-05
3.14084e-08
4.52923e-05
3.43267e-08
4.52946e-05
3.42779e-08
4.52965e-05
3.28268e-08
4.5299e-05
3.18802e-08
4.53024e-05
3.19025e-08
4.53059e-05
3.15482e-08
4.5309e-05
3.02682e-08
4.53118e-05
2.83061e-08
4.53146e-05
2.63748e-08
4.53173e-05
2.47523e-08
4.53198e-05
2.34187e-08
2.14037e-08
4.53217e-05
4.88988e-05
3.53423e-09
4.88988e-05
9.47934e-09
4.88987e-05
1.35795e-08
4.89001e-05
1.8722e-08
4.89019e-05
2.31588e-08
4.89029e-05
2.49088e-08
4.89043e-05
2.61577e-08
4.8907e-05
2.86484e-08
4.89105e-05
3.08806e-08
4.89135e-05
3.12872e-08
4.8916e-05
3.03245e-08
4.89186e-05
2.9215e-08
4.89219e-05
2.86328e-08
4.89253e-05
2.81468e-08
4.89284e-05
2.72215e-08
4.8931e-05
2.5616e-08
4.89338e-05
2.36466e-08
4.89367e-05
2.18458e-08
4.89397e-05
2.03518e-08
1.90621e-08
4.89421e-05
5.28029e-05
3.29651e-09
5.28033e-05
9.08714e-09
5.28038e-05
1.30902e-08
5.28053e-05
1.72363e-08
5.28074e-05
2.10245e-08
5.28093e-05
2.30633e-08
5.28112e-05
2.42532e-08
5.2814e-05
2.5845e-08
5.28175e-05
2.73816e-08
5.28209e-05
2.7903e-08
5.28239e-05
2.732e-08
5.28268e-05
2.62901e-08
5.28301e-05
2.53445e-08
5.28337e-05
2.45293e-08
5.28371e-05
2.38334e-08
5.28396e-05
2.31701e-08
5.28411e-05
2.20716e-08
5.28422e-05
2.07936e-08
5.28432e-05
1.92839e-08
1.63383e-08
5.2846e-05
5.70188e-05
2.99625e-09
5.70196e-05
8.32149e-09
5.70206e-05
1.20707e-08
5.70224e-05
1.54656e-08
5.70248e-05
1.85656e-08
5.70273e-05
2.05707e-08
5.70299e-05
2.17269e-08
5.70329e-05
2.28122e-08
5.70365e-05
2.38004e-08
5.70401e-05
2.42241e-08
5.70435e-05
2.39489e-08
5.70465e-05
2.32608e-08
5.70495e-05
2.23838e-08
5.70529e-05
2.1102e-08
5.7057e-05
1.97218e-08
5.70619e-05
1.82887e-08
5.70671e-05
1.68999e-08
5.70722e-05
1.573e-08
5.70764e-05
1.50447e-08
1.63193e-08
5.70764e-05
6.15713e-05
2.60411e-09
6.15724e-05
7.2244e-09
6.1574e-05
1.05349e-08
6.15761e-05
1.33011e-08
6.15789e-05
1.57549e-08
6.1582e-05
1.75254e-08
6.15851e-05
1.86209e-08
6.15885e-05
1.94231e-08
6.15922e-05
2.00758e-08
6.15961e-05
2.03172e-08
6.16e-05
2.00516e-08
6.16037e-05
1.95473e-08
6.16068e-05
1.92851e-08
6.16089e-05
1.89698e-08
6.16101e-05
1.85567e-08
6.16104e-05
1.79571e-08
6.16102e-05
1.71189e-08
6.161e-05
1.59624e-08
6.16108e-05
1.42543e-08
1.11188e-08
6.1616e-05
6.64873e-05
2.1091e-09
6.64887e-05
5.8074e-09
6.64907e-05
8.50989e-09
6.64934e-05
1.06857e-08
6.64966e-05
1.25529e-08
6.65001e-05
1.39812e-08
6.65038e-05
1.49498e-08
6.65076e-05
1.56076e-08
6.65116e-05
1.6102e-08
6.65155e-05
1.63273e-08
6.65194e-05
1.62022e-08
6.65232e-05
1.5701e-08
6.65276e-05
1.49478e-08
6.65325e-05
1.40712e-08
6.65379e-05
1.31556e-08
6.65436e-05
1.22694e-08
6.65492e-05
1.14547e-08
6.65544e-05
1.08178e-08
6.65579e-05
1.07576e-08
1.20125e-08
6.6557e-05
7.17958e-05
1.51922e-09
7.17974e-05
4.12315e-09
7.17999e-05
6.04863e-09
7.1803e-05
7.62251e-09
7.18066e-05
8.93576e-09
7.18106e-05
9.98473e-09
7.18148e-05
1.07175e-08
7.18192e-05
1.12365e-08
7.18237e-05
1.16104e-08
7.18281e-05
1.18949e-08
7.18322e-05
1.20929e-08
7.18357e-05
1.22451e-08
7.18382e-05
1.23868e-08
7.18398e-05
1.2481e-08
7.18405e-05
1.25082e-08
7.18404e-05
1.23276e-08
7.184e-05
1.19099e-08
7.18397e-05
1.10416e-08
7.18412e-05
9.30854e-09
6.86281e-09
7.18463e-05
7.75282e-05
7.75303e-05
7.75332e-05
7.75368e-05
7.75409e-05
7.75454e-05
7.75502e-05
7.75552e-05
7.75603e-05
7.75656e-05
7.75709e-05
7.75764e-05
7.75818e-05
7.75872e-05
7.75924e-05
7.75971e-05
7.76013e-05
7.76047e-05
7.76063e-05
7.76056e-05
3.80888e-06
2.93139e-08
3.77366e-06
3.52187e-08
3.73697e-06
3.66876e-08
3.69438e-06
4.25894e-08
3.64656e-06
4.78284e-08
3.59672e-06
4.98389e-08
3.54787e-06
4.88505e-08
3.50151e-06
4.63573e-08
3.45726e-06
4.42542e-08
3.41347e-06
4.37814e-08
3.36872e-06
4.47577e-08
3.32262e-06
4.60957e-08
3.27515e-06
4.74755e-08
3.2264e-06
4.87421e-08
3.17656e-06
4.98419e-08
3.12574e-06
5.08175e-08
3.07394e-06
5.18074e-08
3.02108e-06
5.28556e-08
2.96725e-06
5.38316e-08
2.91269e-06
5.45597e-08
2.85776e-06
5.49333e-08
2.80273e-06
5.50237e-08
2.74784e-06
5.48943e-08
2.69324e-06
5.46022e-08
2.63899e-06
5.42501e-08
2.58512e-06
5.38706e-08
2.53159e-06
5.35262e-08
2.47822e-06
5.33732e-08
2.42463e-06
5.35845e-08
2.37036e-06
5.42728e-08
2.3149e-06
5.54596e-08
2.25787e-06
5.70304e-08
2.19922e-06
5.86521e-08
2.13942e-06
5.97975e-08
2.07936e-06
6.00554e-08
2.01987e-06
5.94915e-08
1.96136e-06
5.85115e-08
1.90385e-06
5.75091e-08
1.84693e-06
5.69227e-08
1.78973e-06
5.71962e-08
1.73152e-06
5.82161e-08
1.67245e-06
5.90666e-08
1.61368e-06
5.87676e-08
1.5566e-06
5.70783e-08
1.50193e-06
5.46784e-08
1.44933e-06
5.25976e-08
1.39822e-06
5.11116e-08
1.34897e-06
4.92482e-08
1.30299e-06
4.598e-08
1.26154e-06
4.14483e-08
1.22502e-06
3.65232e-08
1.19342e-06
3.15934e-08
1.16698e-06
2.64473e-08
1.14605e-06
2.09291e-08
1.13074e-06
1.53068e-08
1.12057e-06
1.01702e-08
1.11492e-06
5.65416e-09
1.11317e-06
1.7453e-09
1.11461e-06
-1.44188e-09
1.11839e-06
-3.78218e-09
1.12352e-06
-5.12274e-09
1.12911e-06
-5.59509e-09
1.13441e-06
-5.29509e-09
1.13883e-06
-4.42285e-09
1.14195e-06
-3.11957e-09
1.14353e-06
-1.57929e-09
1.14355e-06
-2.52875e-11
1.14246e-06
1.09652e-09
1.14098e-06
1.48036e-09
1.13988e-06
1.10119e-09
1.13944e-06
4.37271e-10
1.13947e-06
-2.97231e-11
1.13967e-06
-1.98552e-10
1.13989e-06
-2.25935e-10
1.14014e-06
-2.46542e-10
1.14042e-06
-2.76277e-10
1.14072e-06
-3.03646e-10
1.14106e-06
-3.35804e-10
1.14143e-06
-3.76734e-10
1.14185e-06
-4.1805e-10
1.1423e-06
-4.53567e-10
1.14279e-06
-4.85849e-10
1.1433e-06
-5.13674e-10
1.14384e-06
-5.35173e-10
1.14438e-06
-5.4485e-10
1.14493e-06
-5.45559e-10
1.14547e-06
-5.42123e-10
1.14601e-06
-5.37593e-10
1.14654e-06
-5.33231e-10
1.14707e-06
-5.26818e-10
1.14758e-06
-5.14223e-10
1.14807e-06
-4.90737e-10
1.14853e-06
-4.52775e-10
1.14893e-06
-4.00781e-10
1.14927e-06
-3.38813e-10
1.14954e-06
-2.73089e-10
1.14975e-06
-2.09764e-10
1.1499e-06
-1.52901e-10
1.15001e-06
-1.06468e-10
1.15008e-06
-7.10132e-11
1.15013e-06
-4.57628e-11
1.15015e-06
-2.91132e-11
1.15017e-06
-1.88798e-11
1.15019e-06
-1.31019e-11
1.1502e-06
-1.02653e-11
1.15021e-06
-9.15145e-12
1.15021e-06
-8.8979e-12
1.15022e-06
-8.9463e-12
1.15023e-06
-9.03706e-12
1.15024e-06
-9.07467e-12
1.15025e-06
-9.01819e-12
1.15026e-06
-8.86186e-12
1.15027e-06
-8.57026e-12
1.15028e-06
-8.21627e-12
1.15028e-06
-7.76263e-12
1.15029e-06
-7.29723e-12
1.1503e-06
-6.83055e-12
1.1503e-06
-6.37572e-12
1.15031e-06
-5.93456e-12
1.15032e-06
-5.50469e-12
1.15032e-06
-5.09568e-12
1.15033e-06
-4.69796e-12
1.15033e-06
-4.32911e-12
1.15033e-06
-3.98838e-12
1.15034e-06
-3.67245e-12
1.15034e-06
-3.37791e-12
1.15034e-06
-3.10547e-12
1.15035e-06
-2.85049e-12
1.15035e-06
-2.61526e-12
1.15035e-06
-2.3907e-12
1.15035e-06
-2.17679e-12
1.15036e-06
-1.97909e-12
1.15036e-06
-1.8036e-12
1.15036e-06
-1.64879e-12
1.15036e-06
-1.5074e-12
1.15036e-06
-1.36808e-12
1.15036e-06
-1.22914e-12
1.15036e-06
-1.10439e-12
1.15037e-06
-1.00223e-12
1.15037e-06
-9.1175e-13
1.15037e-06
-8.468e-13
1.15037e-06
-7.6102e-13
1.15037e-06
-6.99762e-13
1.15037e-06
-5.94332e-13
1.15037e-06
-5.56493e-13
1.15037e-06
-4.3004e-13
1.15037e-06
-4.80379e-13
1.15037e-06
-3.04437e-13
1.15037e-06
-4.96846e-13
1.15037e-06
-1.30091e-13
1.15037e-06
-5.71984e-13
1.15037e-06
1.81986e-13
1.15037e-06
-8.1111e-13
1.15037e-06
6.65902e-13
1.15037e-06
-1.36247e-12
1.15037e-06
1.50252e-12
1.15037e-06
-2.37068e-12
1.15037e-06
2.90178e-12
1.15038e-06
-4.05241e-12
1.15037e-06
5.03091e-12
1.15038e-06
-6.52511e-12
1.15037e-06
7.93452e-12
1.15038e-06
-9.64066e-12
1.15037e-06
1.11968e-11
1.15038e-06
-1.26679e-11
1.15037e-06
1.36763e-11
1.15038e-06
-1.40214e-11
1.15037e-06
1.3446e-11
1.15038e-06
-1.15083e-11
1.15037e-06
8.29889e-12
1.15037e-06
-3.36385e-12
1.15038e-06
-2.60041e-12
1.15037e-06
9.78384e-12
1.15038e-06
-1.66036e-11
1.15036e-06
2.30278e-11
1.15039e-06
-2.66981e-11
1.15036e-06
2.8078e-11
1.15038e-06
-2.47632e-11
1.15036e-06
1.90223e-11
1.15037e-06
-9.24792e-12
1.15037e-06
4.59111e-13
1.15036e-06
8.79481e-12
1.15038e-06
-1.1572e-11
1.15036e-06
1.22764e-11
1.15037e-06
-4.05742e-12
1.15037e-06
-1.77121e-12
1.15036e-06
1.34929e-11
1.15037e-06
-1.21735e-11
1.15035e-06
1.72904e-11
1.15035e-06
-8.38448e-13
1.15034e-06
8.67248e-12
1.15033e-06
1.6063e-11
1.15031e-06
2.03821e-11
1.15029e-06
1.87993e-11
1.15022e-06
6.62506e-11
1.15019e-06
3.04795e-11
1.15007e-06
1.2136e-10
1.14996e-06
1.12623e-10
1.14987e-06
8.54169e-11
9.10866e-10
4.15139e-06
2.89411e-08
4.16861e-06
1.80048e-08
4.17978e-06
2.552e-08
4.18124e-06
4.11231e-08
4.17612e-06
5.29478e-08
4.17003e-06
5.59348e-08
4.16506e-06
5.38149e-08
4.16194e-06
4.94759e-08
4.15969e-06
4.65106e-08
4.15717e-06
4.62993e-08
4.1537e-06
4.82302e-08
4.14887e-06
5.09229e-08
4.14296e-06
5.33816e-08
4.13614e-06
5.5568e-08
4.12848e-06
5.75039e-08
4.12004e-06
5.92487e-08
4.11079e-06
6.10644e-08
4.10061e-06
6.30367e-08
4.08936e-06
6.50754e-08
4.07707e-06
6.68557e-08
4.06383e-06
6.81681e-08
4.04979e-06
6.90686e-08
4.03508e-06
6.95994e-08
4.01981e-06
6.98728e-08
4.00405e-06
7.00144e-08
3.98779e-06
7.01239e-08
3.97105e-06
7.02653e-08
3.95378e-06
7.06462e-08
3.93586e-06
7.15097e-08
3.91713e-06
7.3003e-08
3.89741e-06
7.51755e-08
3.87657e-06
7.78712e-08
3.85452e-06
8.0702e-08
3.83133e-06
8.29877e-08
3.80718e-06
8.4205e-08
3.78225e-06
8.44168e-08
3.75666e-06
8.41105e-08
3.73029e-06
8.38703e-08
3.70306e-06
8.41534e-08
3.67485e-06
8.54135e-08
3.64535e-06
8.77102e-08
3.61459e-06
8.98276e-08
3.58294e-06
9.0421e-08
3.55087e-06
8.91421e-08
3.51883e-06
8.67218e-08
3.48687e-06
8.456e-08
3.45482e-06
8.31583e-08
3.42287e-06
8.11966e-08
3.39162e-06
7.72328e-08
3.36166e-06
7.14125e-08
3.33318e-06
6.49944e-08
3.30628e-06
5.84928e-08
3.28126e-06
5.14686e-08
3.25843e-06
4.37663e-08
3.23804e-06
3.56924e-08
3.2201e-06
2.8115e-08
3.20449e-06
2.1258e-08
3.19119e-06
1.50517e-08
3.17998e-06
9.76094e-09
3.17043e-06
5.76882e-09
3.16216e-06
3.14429e-09
3.1548e-06
1.76804e-09
3.14792e-06
1.58303e-09
3.14126e-06
2.244e-09
3.1346e-06
3.54092e-09
3.12778e-06
5.24196e-09
3.12074e-06
7.01075e-09
3.11358e-06
8.26021e-09
3.10662e-06
8.43879e-09
3.1002e-06
7.52089e-09
3.09445e-06
6.18239e-09
3.08931e-06
5.10872e-09
3.08467e-06
4.44108e-09
3.0805e-06
3.95245e-09
3.07678e-06
3.47019e-09
3.07352e-06
2.98569e-09
3.0707e-06
2.51806e-09
3.0683e-06
2.05614e-09
3.06633e-06
1.592e-09
3.06479e-06
1.13041e-09
3.06366e-06
6.7213e-10
3.06296e-06
2.13587e-10
3.06267e-06
-2.23209e-10
3.06276e-06
-6.26485e-10
3.0632e-06
-9.78427e-10
3.06394e-06
-1.29182e-09
3.06499e-06
-1.5948e-09
3.06637e-06
-1.91699e-09
3.06811e-06
-2.2722e-09
3.07023e-06
-2.64382e-09
3.0727e-06
-2.98855e-09
3.07546e-06
-3.24794e-09
3.07838e-06
-3.36795e-09
3.0813e-06
-3.31957e-09
3.08406e-06
-3.10609e-09
3.08655e-06
-2.75932e-09
3.08867e-06
-2.32913e-09
3.09039e-06
-1.87031e-09
3.09171e-06
-1.43178e-09
3.09269e-06
-1.04649e-09
3.09337e-06
-7.31729e-10
3.09383e-06
-4.90885e-10
3.09413e-06
-3.1699e-10
3.09432e-06
-1.98257e-10
3.09443e-06
-1.2171e-10
3.09449e-06
-7.51097e-11
3.09453e-06
-4.83889e-11
3.09456e-06
-3.3943e-11
3.09458e-06
-2.66156e-11
3.09459e-06
-2.31293e-11
3.0946e-06
-2.15083e-11
3.09462e-06
-2.06333e-11
3.09463e-06
-1.98356e-11
3.09464e-06
-1.90326e-11
3.09465e-06
-1.80002e-11
3.09466e-06
-1.68928e-11
3.09467e-06
-1.57608e-11
3.09467e-06
-1.46061e-11
3.09468e-06
-1.34793e-11
3.09469e-06
-1.23893e-11
3.09469e-06
-1.13495e-11
3.0947e-06
-1.03609e-11
3.09471e-06
-9.4486e-12
3.09471e-06
-8.60833e-12
3.09471e-06
-7.8327e-12
3.09472e-06
-7.12323e-12
3.09472e-06
-6.46714e-12
3.09472e-06
-5.86588e-12
3.09473e-06
-5.3166e-12
3.09473e-06
-4.80113e-12
3.09473e-06
-4.32277e-12
3.09473e-06
-3.88189e-12
3.09474e-06
-3.4935e-12
3.09474e-06
-3.1452e-12
3.09474e-06
-2.8389e-12
3.09474e-06
-2.53746e-12
3.09474e-06
-2.25333e-12
3.09474e-06
-1.99816e-12
3.09474e-06
-1.77833e-12
3.09474e-06
-1.59692e-12
3.09474e-06
-1.44762e-12
3.09474e-06
-1.28516e-12
3.09474e-06
-1.15447e-12
3.09474e-06
-9.71849e-13
3.09475e-06
-8.7842e-13
3.09475e-06
-6.80537e-13
3.09475e-06
-7.11015e-13
3.09475e-06
-4.76279e-13
3.09475e-06
-6.89202e-13
3.09475e-06
-2.23388e-13
3.09475e-06
-7.43264e-13
3.09475e-06
2.09335e-13
3.09475e-06
-1.00707e-12
3.09475e-06
8.23513e-13
3.09475e-06
-1.66328e-12
3.09475e-06
1.85892e-12
3.09475e-06
-2.87762e-12
3.09475e-06
3.59284e-12
3.09475e-06
-4.94179e-12
3.09475e-06
6.23244e-12
3.09475e-06
-8.00549e-12
3.09475e-06
9.87009e-12
3.09475e-06
-1.19322e-11
3.09474e-06
1.40771e-11
3.09475e-06
-1.59711e-11
3.09474e-06
1.76469e-11
3.09475e-06
-1.84103e-11
3.09474e-06
1.85295e-11
3.09475e-06
-1.69031e-11
3.09474e-06
1.4307e-11
3.09475e-06
-9.38878e-12
3.09474e-06
3.62831e-12
3.09475e-06
4.39149e-12
3.09474e-06
-1.22009e-11
3.09474e-06
2.15086e-11
3.09475e-06
-2.87393e-11
3.09474e-06
3.63616e-11
3.09475e-06
-3.95474e-11
3.09473e-06
4.21748e-11
3.09476e-06
-3.79563e-11
3.09473e-06
3.34021e-11
3.09476e-06
-2.10376e-11
3.09473e-06
1.25448e-11
3.09474e-06
9.20736e-13
3.09474e-06
-7.38347e-13
3.09474e-06
2.94477e-12
3.09473e-06
1.59084e-11
3.09474e-06
-1.99161e-11
3.09471e-06
4.31773e-11
3.09474e-06
-2.19192e-11
3.09471e-06
3.66581e-11
3.0947e-06
2.14586e-11
3.09469e-06
3.05171e-11
3.09466e-06
5.439e-11
3.09463e-06
9.33032e-11
3.09456e-06
9.70788e-11
3.09454e-06
1.45264e-10
3.09434e-06
3.12398e-10
3.09434e-06
8.69628e-11
1.43891e-09
4.48454e-06
1.2499e-08
4.50065e-06
1.89497e-09
4.51105e-06
1.51201e-08
4.50854e-06
4.36367e-08
4.50638e-06
5.50997e-08
4.50577e-06
5.65502e-08
4.50711e-06
5.24756e-08
4.50876e-06
4.78224e-08
4.50958e-06
4.5694e-08
4.51002e-06
4.58533e-08
4.51072e-06
4.75391e-08
4.51154e-06
5.01022e-08
4.51214e-06
5.27739e-08
4.5125e-06
5.5207e-08
4.51269e-06
5.73157e-08
4.51281e-06
5.91277e-08
4.5129e-06
6.09783e-08
4.51291e-06
6.30271e-08
4.51269e-06
6.52971e-08
4.51212e-06
6.7419e-08