/*--------------------------------*- C++ -*----------------------------------*\
| =========                 |                                                 |
| \\      /  F ield         | OpenFOAM: The Open Source CFD Toolbox           |
|  \\    /   O peration     | Version:  v2012                                 |
|   \\  /    A nd           | Website:  www.openfoam.com                      |
|    \\/     M anipulation  |                                                 |
\*---------------------------------------------------------------------------*/
FoamFile
{
    version     2.0;
    format      ascii;
    class       volVectorField;
    location    "0.2";
    object      U;
}
// * * * * * * * * * * * * * * * * * * * * * * * * * * * * * * * * * * * * * //

dimensions      [0 1 -1 0 0 0 0];


internalField   nonuniform List<vector> 
8800
(
(0.964149 -0.00108947 0)
(1.03456 0.00146936 0)
(0.970274 -0.00229122 0)
(1.03264 0.00125564 0)
(0.971723 0.000430028 0)
(1.02509 0.00189326 0)
(0.971676 0.000729025 0)
(1.02303 1.34202e-05 0)
(0.977512 -0.00296542 0)
(1.0224 -0.00185339 0)
(0.98343 -0.00236883 0)
(1.02337 -0.0015917 0)
(0.98692 -0.000777017 0)
(1.02141 0.000464272 0)
(0.989021 0.000848088 0)
(1.01829 0.00152369 0)
(0.99045 0.0014958 0)
(1.01669 0.00220339 0)
(0.993804 0.00156708 0)
(1.01735 0.00128605 0)
(0.986276 -0.00102335 0)
(1.0116 0.00121144 0)
(0.991015 -0.00214067 0)
(1.00954 0.00108016 0)
(0.992689 0.000834805 0)
(1.00531 0.00174293 0)
(0.993708 0.000973719 0)
(1.00464 -0.000439186 0)
(0.996218 -0.00274306 0)
(1.00258 -0.00248325 0)
(0.997689 -0.00217046 0)
(1.00319 -0.00198111 0)
(0.998962 -0.000480113 0)
(1.00312 0.000324435 0)
(1.00044 0.00120983 0)
(1.00272 0.00148694 0)
(1.00169 0.00185728 0)
(1.00367 0.00252923 0)
(1.0043 0.00273491 0)
(1.00648 0.0015157 0)
(0.99723 -0.000972126 0)
(1.00172 0.00109717 0)
(0.998231 -0.0020162 0)
(1.00011 0.00102607 0)
(0.998338 0.000886912 0)
(1.00002 0.00165541 0)
(0.999362 0.000957154 0)
(1.00154 -0.000338865 0)
(0.999656 -0.0027115 0)
(0.99818 -0.0022223 0)
(0.997686 -0.00236345 0)
(0.997743 -0.00157608 0)
(0.997096 -0.000883813 0)
(0.998063 0.000900745 0)
(0.998376 0.000397083 0)
(0.999053 0.00223895 0)
(1.00019 0.00104166 0)
(1.00164 0.00317631 0)
(1.00307 0.00310812 0)
(1.00487 0.00560853 0)
(0.999674 -0.000939287 0)
(0.999867 0.0010141 0)
(0.999316 -0.00187001 0)
(0.998327 0.000914293 0)
(0.998929 0.000989021 0)
(0.999597 0.00149672 0)
(1.00032 0.00107042 0)
(1.00166 -0.000486886 0)
(1.00036 -0.00239934 0)
(0.997859 -0.00240733 0)
(0.99721 -0.00195777 0)
(0.99658 -0.00200091 0)
(0.995913 -0.000389755 0)
(0.996442 0.000243902 0)
(0.996998 0.00107113 0)
(0.997655 0.00160605 0)
(0.999142 0.00154272 0)
(1.00089 0.00194431 0)
(1.00289 0.00155517 0)
(1.00414 0.00175434 0)
(0.999984 -0.000826238 0)
(0.999682 0.000784841 0)
(0.999394 -0.00155043 0)
(0.99819 0.00066764 0)
(0.998948 0.00118431 0)
(0.999651 0.00113124 0)
(1.00041 0.0012249 0)
(1.00176 -0.000739276 0)
(1.00045 -0.00191961 0)
(0.997968 -0.0025225 0)
(0.997178 -0.00152852 0)
(0.996496 -0.00212482 0)
(0.99568 5.85836e-05 0)
(0.996192 -0.000279443 0)
(0.996646 0.00158907 0)
(0.99728 0.00100735 0)
(0.998727 0.00203617 0)
(1.00033 0.000650112 0)
(1.00194 0.000632885 0)
(1.00421 -0.00121026 0)
(1.00004 -0.0008719 0)
(0.99963 0.000857717 0)
(0.999411 -0.00156978 0)
(0.99828 0.000774363 0)
(0.998935 0.00104363 0)
(0.999694 0.001238 0)
(1.00036 0.00100269 0)
(1.0016 -0.000390666 0)
(1.00044 -0.00220698 0)
(0.998032 -0.00184904 0)
(0.997195 -0.00201556 0)
(0.99659 -0.00128839 0)
(0.995801 -0.000664504 0)
(0.996213 0.000747765 0)
(0.996704 0.000602077 0)
(0.997272 0.00186267 0)
(0.998615 0.00111223 0)
(1.00024 0.00166415 0)
(1.00219 0.00139046 0)
(1.00506 0.00289242 0)
(1.00004 -0.000674433 0)
(0.999635 0.000467897 0)
(0.99942 -0.00105929 0)
(0.99838 0.000315295 0)
(0.998972 0.00143102 0)
(0.999682 0.000704757 0)
(1.00029 0.00137116 0)
(1.00148 -0.000892334 0)
(1.00036 -0.00147893 0)
(0.998048 -0.00227459 0)
(0.997289 -0.0013765 0)
(0.99669 -0.00151899 0)
(0.995979 -0.000230303 0)
(0.996344 0.0004542 0)
(0.996798 0.00105763 0)
(0.997296 0.00138386 0)
(0.998636 0.00152042 0)
(1.00034 0.00165857 0)
(1.00223 0.00199845 0)
(1.00506 0.00194521 0)
(1.00006 -0.000759769 0)
(0.999617 0.000609803 0)
(0.999433 -0.00117909 0)
(0.998499 0.000548564 0)
(0.998969 0.00116666 0)
(0.999715 0.000865064 0)
(1.0002 0.00101606 0)
(1.00131 -0.00043032 0)
(1.00031 -0.00184133 0)
(0.998092 -0.00148904 0)
(0.997329 -0.00178986 0)
(0.996813 -0.000902764 0)
(0.996161 -0.000574929 0)
(0.996478 0.00086079 0)
(0.996913 0.000640212 0)
(0.997397 0.00174885 0)
(0.998705 0.00132225 0)
(1.00039 0.00194924 0)
(1.00228 0.00180078 0)
(1.00515 0.00285248 0)
(1.00006 -0.000558154 0)
(0.999624 0.000243212 0)
(0.999459 -0.000716919 0)
(0.998599 0.000166329 0)
(0.999024 0.0014403 0)
(0.999683 0.000578378 0)
(1.00016 0.00111977 0)
(1.00116 -0.000541069 0)
(1.00026 -0.00151536 0)
(0.998083 -0.00152115 0)
(0.99743 -0.00143739 0)
(0.996933 -0.000954178 0)
(0.996354 -0.000154209 0)
(0.996615 0.000582824 0)
(0.997046 0.000972149 0)
(0.997479 0.00160682 0)
(0.998735 0.00155267 0)
(1.00051 0.00168121 0)
(1.00257 0.00187113 0)
(1.00533 0.00222292 0)
(1.00007 -0.000611789 0)
(0.999636 0.000312686 0)
(0.999462 -0.000746019 0)
(0.998737 0.00029736 0)
(0.999021 0.00128647 0)
(0.999716 0.000589048 0)
(1.00008 0.00100556 0)
(1.001 -0.000446008 0)
(1.00021 -0.00142745 0)
(0.998151 -0.00135431 0)
(0.997466 -0.00109677 0)
(0.997103 -0.00108307 0)
(0.99651 0.000298309 0)
(0.996769 0.000356242 0)
(0.997205 0.00128759 0)
(0.997585 0.00138023 0)
(0.998771 0.00188864 0)
(1.00052 0.00144806 0)
(1.00249 0.00186196 0)
(1.00549 0.00147974 0)
(1.00008 -0.000456427 0)
(0.999645 6.40972e-05 0)
(0.999505 -0.000489521 0)
(0.998836 0.000151884 0)
(0.999082 0.00128474 0)
(0.999682 0.000621176 0)
(1.00005 0.000730204 0)
(1.00086 -0.000132799 0)
(1.00017 -0.00148968 0)
(0.998186 -0.00094829 0)
(0.99753 -0.00117621 0)
(0.997274 -0.0006612 0)
(0.996707 0.000123049 0)
(0.996909 0.000840192 0)
(0.997349 0.000967661 0)
(0.997702 0.00166593 0)
(0.99879 0.00169274 0)
(1.00056 0.00174571 0)
(1.00262 0.00177585 0)
(1.00578 0.00228098 0)
(1.00009 -0.000466903 0)
(0.999672 7.71705e-05 0)
(0.999518 -0.000430555 0)
(0.998971 0.000166026 0)
(0.999104 0.0012629 0)
(0.999684 0.000507126 0)
(1.00001 0.000820342 0)
(1.0007 -0.000238484 0)
(1.00014 -0.00121176 0)
(0.998256 -0.000941392 0)
(0.997588 -0.000762484 0)
(0.997439 -0.00066375 0)
(0.996922 0.000324884 0)
(0.997034 0.000911516 0)
(0.997499 0.00108749 0)
(0.997851 0.00160565 0)
(0.998853 0.00186469 0)
(1.0006 0.001828 0)
(1.00276 0.00193258 0)
(1.00593 0.00231307 0)
(1.00009 -0.000372308 0)
(0.99969 -5.5035e-05 0)
(0.999567 -0.000359814 0)
(0.999078 0.000212372 0)
(0.999159 0.0010976 0)
(0.999667 0.000652684 0)
(0.999971 0.000552153 0)
(1.00057 -2.14503e-05 0)
(1.0001 -0.00111618 0)
(0.998335 -0.000761881 0)
(0.997652 -0.000549476 0)
(0.9976 -0.000491013 0)
(0.997167 0.00039019 0)
(0.997179 0.00109533 0)
(0.997623 0.00120432 0)
(0.998013 0.00161188 0)
(0.998923 0.00193043 0)
(1.00064 0.00191408 0)
(1.00288 0.00197209 0)
(1.00604 0.00214693 0)
(1.0001 -0.000347678 0)
(0.999718 -3.93527e-05 0)
(0.9996 -0.000299066 0)
(0.999203 0.000169947 0)
(0.9992 0.00112348 0)
(0.99965 0.000533786 0)
(0.99995 0.000595911 0)
(1.00045 -3.00333e-05 0)
(1.00007 -0.000879302 0)
(0.998443 -0.000714213 0)
(0.99772 -0.000226699 0)
(0.997754 -0.000381618 0)
(0.997424 0.000519131 0)
(0.99734 0.00111828 0)
(0.997739 0.00141455 0)
(0.99817 0.00159294 0)
(0.999029 0.00202788 0)
(1.00068 0.00199382 0)
(1.00292 0.00202872 0)
(1.00609 0.00196144 0)
(1.0001 -0.000304699 0)
(0.99974 -5.44956e-05 0)
(0.999643 -0.000295657 0)
(0.99932 0.000212124 0)
(0.999248 0.00100956 0)
(0.999635 0.000605961 0)
(0.999919 0.000471352 0)
(1.00035 8.6342e-05 0)
(1.00004 -0.000759754 0)
(0.99856 -0.000531493 0)
(0.997805 -8.75695e-05 0)
(0.99789 -8.30854e-05 0)
(0.997681 0.000485984 0)
(0.997541 0.00127708 0)
(0.997862 0.00152049 0)
(0.998321 0.00172379 0)
(0.99915 0.00203191 0)
(1.00071 0.00211118 0)
(1.00292 0.00203137 0)
(1.0061 0.00203611 0)
(1.0001 -0.000274366 0)
(0.999761 -4.25709e-05 0)
(0.999683 -0.000259719 0)
(0.99944 0.000161613 0)
(0.999299 0.00100492 0)
(0.999606 0.000564541 0)
(0.999906 0.00044704 0)
(1.00026 0.000139994 0)
(1.00001 -0.000557633 0)
(0.998687 -0.000426264 0)
(0.997917 0.000110774 0)
(0.99801 0.000151785 0)
(0.997941 0.000598827 0)
(0.997772 0.00132808 0)
(0.997986 0.00164528 0)
(0.998457 0.00180249 0)
(0.99927 0.00208039 0)
(1.00075 0.00217383 0)
(1.00294 0.00209665 0)
(1.00608 0.00201571 0)
(1.00011 -0.000251234 0)
(0.999778 -1.56424e-05 0)
(0.999714 -0.000235738 0)
(0.999561 0.00011978 0)
(0.999348 0.000955841 0)
(0.999579 0.000589859 0)
(0.999885 0.000400103 0)
(1.00019 0.000189929 0)
(0.999979 -0.000332094 0)
(0.99882 -0.000326028 0)
(0.998051 0.000274612 0)
(0.998135 0.000367588 0)
(0.998172 0.000760292 0)
(0.998009 0.00131555 0)
(0.998137 0.00175838 0)
(0.998596 0.00188409 0)
(0.999401 0.00215491 0)
(1.00079 0.0022313 0)
(1.00289 0.00214639 0)
(1.00595 0.00192183 0)
(1.00011 -0.000227884 0)
(0.999791 6.73212e-06 0)
(0.999737 -0.000184013 0)
(0.999678 5.47657e-05 0)
(0.999411 0.000903315 0)
(0.999534 0.000643402 0)
(0.999868 0.000343161 0)
(1.00014 0.000253336 0)
(0.99995 -0.000149237 0)
(0.998945 -0.000174438 0)
(0.998212 0.000365533 0)
(0.998266 0.000585056 0)
(0.99838 0.000890565 0)
(0.998258 0.00137114 0)
(0.998316 0.00184286 0)
(0.998731 0.00198363 0)
(0.999524 0.00219472 0)
(1.00081 0.00227239 0)
(1.00282 0.00218635 0)
(1.00578 0.00190679 0)
(1.0001 -0.0002056 0)
(0.999803 2.46099e-05 0)
(0.999744 -0.000110944 0)
(0.999788 -1.3237e-05 0)
(0.999483 0.000824759 0)
(0.999489 0.000700695 0)
(0.999837 0.000343547 0)
(1.00011 0.000255013 0)
(0.999929 4.32454e-05 0)
(0.999061 -1.06328e-05 0)
(0.998384 0.000448201 0)
(0.998415 0.000738796 0)
(0.998575 0.00103165 0)
(0.998509 0.00144913 0)
(0.998505 0.00189545 0)
(0.99886 0.00205856 0)
(0.999637 0.00222371 0)
(1.00085 0.00230072 0)
(1.00271 0.00224452 0)
(1.00552 0.00194365 0)
(1.0001 -0.000179455 0)
(0.999815 2.67276e-05 0)
(0.99974 -2.68679e-05 0)
(0.999881 -6.55202e-05 0)
(0.999573 0.0007015 0)
(0.999442 0.00077788 0)
(0.999791 0.000367449 0)
(1.0001 0.000254272 0)
(0.999931 0.000190524 0)
(0.999157 0.000191572 0)
(0.998559 0.000528045 0)
(0.99858 0.000853781 0)
(0.998772 0.00115339 0)
(0.998747 0.00152205 0)
(0.998703 0.00193146 0)
(0.998994 0.00213123 0)
(0.999744 0.00226546 0)
(1.00089 0.00232265 0)
(1.00262 0.00226784 0)
(1.00519 0.00196239 0)
(1.00009 -0.00014904 0)
(0.99983 1.17543e-05 0)
(0.999724 6.87628e-05 0)
(0.999951 -9.08239e-05 0)
(0.999678 0.000558752 0)
(0.999412 0.000821693 0)
(0.99972 0.000455884 0)
(1.0001 0.000245632 0)
(0.999962 0.000296288 0)
(0.99925 0.00037668 0)
(0.998713 0.000665699 0)
(0.998757 0.00091447 0)
(0.998965 0.00125631 0)
(0.998982 0.00155187 0)
(0.998914 0.00198471 0)
(0.999135 0.00217516 0)
(0.999832 0.00231662 0)
(1.00092 0.00231007 0)
(1.00249 0.00226365 0)
(1.0048 0.00192723 0)
(1.00008 -0.000115002 0)
(0.999851 -1.41804e-05 0)
(0.999704 0.000155721 0)
(0.99999 -6.88042e-05 0)
(0.999794 0.000403416 0)
(0.999409 0.00082588 0)
(0.999634 0.000571359 0)
(1.00008 0.000280874 0)
(1.00002 0.0003331 0)
(0.999358 0.000536406 0)
(0.998847 0.000807409 0)
(0.998921 0.00099315 0)
(0.999161 0.00129242 0)
(0.99922 0.00158789 0)
(0.99914 0.00198288 0)
(0.999277 0.00222054 0)
(0.999901 0.00232339 0)
(1.00092 0.00231608 0)
(1.00235 0.00222629 0)
(1.0044 0.00193769 0)
(1.00006 -7.82111e-05 0)
(0.999877 -4.45825e-05 0)
(0.999689 0.000219841 0)
(0.999999 -7.80545e-06 0)
(0.999906 0.000268429 0)
(0.999446 0.000767852 0)
(0.999547 0.000696555 0)
(1.00004 0.000359134 0)
(1.0001 0.000357464 0)
(0.999494 0.000620316 0)
(0.998972 0.000949548 0)
(0.999058 0.00108615 0)
(0.999348 0.00131805 0)
(0.999454 0.00158609 0)
(0.99938 0.00194596 0)
(0.999432 0.00221736 0)
(0.999962 0.00232475 0)
(1.00089 0.00230409 0)
(1.0022 0.00218151 0)
(1.00395 0.00189834 0)
(1.00005 -4.25624e-05 0)
(0.999907 -6.84752e-05 0)
(0.999686 0.000253206 0)
(0.999981 8.19022e-05 0)
(1 0.000172453 0)
(0.999524 0.000669172 0)
(0.999482 0.000787852 0)
(0.999965 0.000482531 0)
(1.00016 0.000389859 0)
(0.99966 0.000643525 0)
(0.999115 0.0010467 0)
(0.999168 0.00119255 0)
(0.999505 0.00134389 0)
(0.999675 0.00156058 0)
(0.999629 0.00187386 0)
(0.999613 0.00216281 0)
(1.00002 0.0022973 0)
(1.00083 0.00226509 0)
(1.002 0.00211921 0)
(1.00349 0.00182034 0)
(1.00004 -1.1157e-05 0)
(0.999938 -7.95461e-05 0)
(0.999699 0.000254412 0)
(0.999947 0.000179786 0)
(1.00007 0.00013126 0)
(0.999632 0.000552201 0)
(0.999457 0.000825368 0)
(0.999876 0.000621145 0)
(1.00018 0.000457901 0)
(0.99984 0.000639328 0)
(0.99929 0.00107567 0)
(0.999267 0.00128265 0)
(0.999622 0.00137879 0)
(0.999863 0.00153183 0)
(0.999873 0.00177735 0)
(0.999816 0.0020576 0)
(1.00009 0.00221537 0)
(1.00075 0.00220003 0)
(1.00176 0.00204685 0)
(1.00302 0.001751 0)
(1.00002 1.37368e-05 0)
(0.999967 -7.37703e-05 0)
(0.999731 0.000232392 0)
(0.99991 0.000264163 0)
(1.0001 0.000142918 0)
(0.999754 0.000443718 0)
(0.999483 0.000804828 0)
(0.999793 0.000742062 0)
(1.00017 0.000560772 0)
(1 0.00064072 0)
(0.9995 0.00104165 0)
(0.999381 0.00132866 0)
(0.999706 0.00141078 0)
(1 0.00150866 0)
(1.00009 0.00167521 0)
(1.00003 0.00191611 0)
(1.00018 0.00208482 0)
(1.00068 0.00210023 0)
(1.00151 0.00196668 0)
(1.00256 0.00169112 0)
(1.00001 3.09011e-05 0)
(0.999989 -5.22637e-05 0)
(0.999776 0.000201346 0)
(0.999881 0.00032165 0)
(1.00011 0.000191688 0)
(0.999869 0.000364719 0)
(0.999557 0.000742857 0)
(0.999741 0.000817942 0)
(1.00013 0.000673598 0)
(1.00012 0.000668187 0)
(0.999725 0.00098004 0)
(0.999528 0.00131151 0)
(0.999775 0.00142464 0)
(1.0001 0.00148356 0)
(1.00025 0.00158527 0)
(1.00023 0.00176049 0)
(1.0003 0.00192404 0)
(1.00064 0.00196078 0)
(1.00128 0.00186839 0)
(1.00211 0.00162469 0)
(1.00001 4.07274e-05 0)
(1 -2.0629e-05 0)
(0.999828 0.000172027 0)
(0.999869 0.00034743 0)
(1.00009 0.00025658 0)
(0.999963 0.000327123 0)
(0.999665 0.000664899 0)
(0.999732 0.000840137 0)
(1.00008 0.000767491 0)
(1.00019 0.000720875 0)
(0.999933 0.000923829 0)
(0.999707 0.00124057 0)
(0.999852 0.00140131 0)
(1.00016 0.00144924 0)
(1.00036 0.00150527 0)
(1.00039 0.00161366 0)
(1.00042 0.0017504 0)
(1.00063 0.00179941 0)
(1.00108 0.00174993 0)
(1.00171 0.0015599 0)
(1 4.44098e-05 0)
(1.00001 1.49338e-05 0)
(0.99988 0.00015213 0)
(0.999875 0.000345702 0)
(1.00006 0.000316585 0)
(1.00003 0.000329044 0)
(0.999785 0.000591824 0)
(0.999767 0.000815956 0)
(1.00004 0.000825064 0)
(1.00022 0.000778164 0)
(1.0001 0.000889878 0)
(0.999898 0.00114686 0)
(0.999952 0.00133395 0)
(1.0002 0.0013967 0)
(1.00043 0.00142858 0)
(1.0005 0.00148496 0)
(1.00052 0.00158393 0)
(1.00064 0.00163474 0)
(1.00093 0.00162017 0)
(1.00139 0.00149195 0)
(0.999998 4.42636e-05 0)
(1.00001 4.79038e-05 0)
(0.999925 0.000144455 0)
(0.999897 0.000328573 0)
(1.00004 0.000357738 0)
(1.00007 0.000353303 0)
(0.999898 0.000537348 0)
(0.999837 0.000764491 0)
(1.00002 0.000839847 0)
(1.00022 0.00081854 0)
(1.00021 0.000874288 0)
(1.00007 0.0010576 0)
(1.00007 0.0012368 0)
(1.00025 0.00131912 0)
(1.00046 0.00134862 0)
(1.00057 0.00137311 0)
(1.00061 0.00143609 0)
(1.00067 0.00147983 0)
(1.00085 0.00148754 0)
(1.00115 0.00141321 0)
(0.999997 4.24561e-05 0)
(1.00001 7.3927e-05 0)
(0.999961 0.000146072 0)
(0.999929 0.000306279 0)
(1.00003 0.000376363 0)
(1.00009 0.00038159 0)
(0.999991 0.000504256 0)
(0.999925 0.000703335 0)
(1.00004 0.000816652 0)
(1.00022 0.000831094 0)
(1.00028 0.000862013 0)
(1.00021 0.00098187 0)
(1.00019 0.00113108 0)
(1.00031 0.00122117 0)
(1.00048 0.00125937 0)
(1.00061 0.00127241 0)
(1.00066 0.00130824 0)
(1.00071 0.0013414 0)
(1.00081 0.00135809 0)
(1.00099 0.00132346 0)
(0.999997 4.01698e-05 0)
(1.00001 9.11787e-05 0)
(0.999988 0.000152952 0)
(0.999964 0.00028485 0)
(1.00003 0.00037518 0)
(1.0001 0.000401284 0)
(1.00006 0.000486065 0)
(1.00001 0.000644486 0)
(1.00008 0.0007681 0)
(1.00023 0.000813362 0)
(1.00032 0.000840578 0)
(1.00031 0.000916667 0)
(1.00031 0.00102954 0)
(1.00037 0.0011142 0)
(1.0005 0.00115955 0)
(1.00062 0.00117421 0)
(1.00069 0.00119509 0)
(1.00073 0.00121814 0)
(1.00079 0.00123643 0)
(1.0009 0.00122671 0)
(0.999998 3.80021e-05 0)
(1.00001 0.000100713 0)
(1.00001 0.000159606 0)
(0.999996 0.000266184 0)
(1.00004 0.000360446 0)
(1.00011 0.000406153 0)
(1.00011 0.000472172 0)
(1.00009 0.000592302 0)
(1.00014 0.000707123 0)
(1.00025 0.000769939 0)
(1.00035 0.000803398 0)
(1.00038 0.000854395 0)
(1.00039 0.000934436 0)
(1.00044 0.00100642 0)
(1.00053 0.00105319 0)
(1.00063 0.00107375 0)
(1.00071 0.00108868 0)
(1.00076 0.00110522 0)
(1.0008 0.00112178 0)
(1.00086 0.00112685 0)
(0.999999 3.60076e-05 0)
(1.00001 0.000103709 0)
(1.00002 0.000162366 0)
(1.00002 0.000249352 0)
(1.00006 0.000337854 0)
(1.00012 0.000395318 0)
(1.00015 0.000453773 0)
(1.00016 0.000544588 0)
(1.00019 0.000642123 0)
(1.00028 0.000709206 0)
(1.00037 0.000749549 0)
(1.00043 0.000788511 0)
(1.00046 0.000844345 0)
(1.0005 0.000900934 0)
(1.00057 0.000945237 0)
(1.00065 0.000971067 0)
(1.00072 0.00098706 0)
(1.00077 0.000998723 0)
(1.00081 0.00100924 0)
(1.00085 0.00101608 0)
(0.999999 3.38853e-05 0)
(1.00001 0.000101478 0)
(1.00003 0.000159415 0)
(1.00005 0.000232015 0)
(1.00008 0.000310121 0)
(1.00014 0.000371228 0)
(1.00018 0.000426094 0)
(1.00021 0.000497208 0)
(1.00025 0.000575686 0)
(1.00031 0.000639105 0)
(1.0004 0.000681674 0)
(1.00046 0.000716662 0)
(1.00051 0.000755743 0)
(1.00055 0.000797443 0)
(1.00061 0.000833776 0)
(1.00067 0.000862721 0)
(1.00072 0.000887398 0)
(1.00076 0.000910517 0)
(1.0008 0.000930642 0)
(1.00085 0.000941008 0)
(0.999999 3.13051e-05 0)
(1.00001 9.49384e-05 0)
(1.00004 0.000150177 0)
(1.00006 0.000211577 0)
(1.0001 0.000278154 0)
(1.00015 0.000336372 0)
(1.0002 0.00038798 0)
(1.00024 0.000445371 0)
(1.00029 0.000507784 0)
(1.00035 0.000562492 0)
(1.00042 0.000604123 0)
(1.00048 0.000637151 0)
(1.00054 0.000669102 0)
(1.00059 0.000699309 0)
(1.00064 0.000722186 0)
(1.00071 0.000735329 0)
(1.00078 0.000740422 0)
(1.00083 0.000745982 0)
(1.00084 0.000756215 0)
(1.00081 0.000780185 0)
(1 2.79104e-05 0)
(1.00002 8.46602e-05 0)
(1.00004 0.000134599 0)
(1.00008 0.000186133 0)
(1.00012 0.000241169 0)
(1.00017 0.000292473 0)
(1.00022 0.000338804 0)
(1.00027 0.000385953 0)
(1.00032 0.000435265 0)
(1.00038 0.000480402 0)
(1.00045 0.000517319 0)
(1.00051 0.000547076 0)
(1.00056 0.000576083 0)
(1.0006 0.000605593 0)
(1.00063 0.000636456 0)
(1.00066 0.000662816 0)
(1.0007 0.00068467 0)
(1.00076 0.000699142 0)
(1.00085 0.000708172 0)
(1.001 0.000709686 0)
(1 2.37409e-05 0)
(1.00002 7.13699e-05 0)
(1.00005 0.000113561 0)
(1.00009 0.000155061 0)
(1.00013 0.000198357 0)
(1.00018 0.000239879 0)
(1.00024 0.00027834 0)
(1.0003 0.0003157 0)
(1.00035 0.000354062 0)
(1.00041 0.000390015 0)
(1.00047 0.00042076 0)
(1.00053 0.000444817 0)
(1.00059 0.000463395 0)
(1.00066 0.000479166 0)
(1.00072 0.000492246 0)
(1.00078 0.000504629 0)
(1.00083 0.000515174 0)
(1.00085 0.000525904 0)
(1.00083 0.000536998 0)
(1.00074 0.000550023 0)
(1 1.90548e-05 0)
(1.00002 5.76845e-05 0)
(1.00005 9.25909e-05 0)
(1.00009 0.000126988 0)
(1.00014 0.000162198 0)
(1.0002 0.000196973 0)
(1.00025 0.000230031 0)
(1.00031 0.000261918 0)
(1.00037 0.000294271 0)
(1.00043 0.000326079 0)
(1.00049 0.000357151 0)
(1.00054 0.000386112 0)
(1.00058 0.000413862 0)
(1.00061 0.000438961 0)
(1.00064 0.000460605 0)
(1.00067 0.000476776 0)
(1.00071 0.00048711 0)
(1.00077 0.000490606 0)
(1.00089 0.000488804 0)
(1.00108 0.000481704 0)
(1 8.2921e-06 0)
(1.00002 2.56461e-05 0)
(1.00006 4.16425e-05 0)
(1.0001 5.79601e-05 0)
(1.00015 7.44462e-05 0)
(1.00021 9.14089e-05 0)
(1.00027 0.000107346 0)
(1.00034 0.000123428 0)
(1.0004 0.000138815 0)
(1.00046 0.000155397 0)
(1.00053 0.000172016 0)
(1.0006 0.000191063 0)
(1.00066 0.000213282 0)
(1.00073 0.000239355 0)
(1.00078 0.00027101 0)
(1.00082 0.000302967 0)
(1.00084 0.000334996 0)
(1.00083 0.000355157 0)
(1.00076 0.000358118 0)
(1.00062 0.000324057 0)
(1.00178 0.0021872 0)
(0.988973 0.00282185 0)
(0.974426 0.00318305 0)
(0.960097 0.00341573 0)
(0.946343 0.00352857 0)
(0.933136 0.00349586 0)
(0.920424 0.00332864 0)
(0.908198 0.00310781 0)
(0.896411 0.00292031 0)
(0.884988 0.00282128 0)
(0.873765 0.00279041 0)
(0.862497 0.00279537 0)
(0.850928 0.0028155 0)
(0.838899 0.00283953 0)
(0.826412 0.00286062 0)
(0.813516 0.00287334 0)
(0.800242 0.00288433 0)
(0.786582 0.00290192 0)
(0.772575 0.00291742 0)
(0.758358 0.00291606 0)
(0.744082 0.00288811 0)
(0.729864 0.00283683 0)
(0.71574 0.00277063 0)
(0.701705 0.00269606 0)
(0.687742 0.00262535 0)
(0.673831 0.00255989 0)
(0.659996 0.00250317 0)
(0.646223 0.00246715 0)
(0.632445 0.00245884 0)
(0.618557 0.00248206 0)
(0.604416 0.00253659 0)
(0.589899 0.00259958 0)
(0.574936 0.00263653 0)
(0.559593 0.00261331 0)
(0.544092 0.00251094 0)
(0.528671 0.00236218 0)
(0.51346 0.00223209 0)
(0.498501 0.00215759 0)
(0.483776 0.00215231 0)
(0.469093 0.0022254 0)
(0.45418 0.00228468 0)
(0.438993 0.00222579 0)
(0.423723 0.0020751 0)
(0.408732 0.00191673 0)
(0.394307 0.00179667 0)
(0.380466 0.00171305 0)
(0.367042 0.00161814 0)
(0.354043 0.00144122 0)
(0.341717 0.00118309 0)
(0.330423 0.000907588 0)
(0.320364 0.000642225 0)
(0.311595 0.000387773 0)
(0.304158 0.000139535 0)
(0.298076 -9.33056e-05 0)
(0.293456 -0.000282615 0)
(0.290206 -0.000436597 0)
(0.288192 -0.000548079 0)
(0.287284 -0.000612102 0)
(0.287262 -0.000675228 0)
(0.287961 -0.000717004 0)
(0.289134 -0.000703885 0)
(0.290545 -0.000624802 0)
(0.291966 -0.0005313 0)
(0.293238 -0.000437405 0)
(0.294224 -0.000343594 0)
(0.294828 -0.000257939 0)
(0.295027 -0.000180649 0)
(0.294878 -0.0001102 0)
(0.294536 -9.6061e-05 0)
(0.294194 -0.000112761 0)
(0.29399 -0.000126661 0)
(0.293937 -0.000125549 0)
(0.29397 -0.00011264 0)
(0.294028 -9.81445e-05 0)
(0.294091 -8.53794e-05 0)
(0.294158 -7.41722e-05 0)
(0.294233 -6.41019e-05 0)
(0.294316 -5.54246e-05 0)
(0.294408 -4.79806e-05 0)
(0.294511 -4.09175e-05 0)
(0.294623 -3.36016e-05 0)
(0.294745 -2.57477e-05 0)
(0.294874 -1.63716e-05 0)
(0.29501 -7.68303e-06 0)
(0.29515 -6.08829e-07 0)
(0.295291 5.20452e-06 0)
(0.295432 1.04046e-05 0)
(0.295571 1.49417e-05 0)
(0.29571 1.83615e-05 0)
(0.295847 2.01756e-05 0)
(0.295982 1.98547e-05 0)
(0.296112 1.72658e-05 0)
(0.296234 1.27375e-05 0)
(0.296344 6.91441e-06 0)
(0.29644 6.46542e-07 0)
(0.296518 -5.06828e-06 0)
(0.29658 -9.64117e-06 0)
(0.296627 -1.32052e-05 0)
(0.29666 -1.53802e-05 0)
(0.296682 -1.61342e-05 0)
(0.296697 -1.57066e-05 0)
(0.296706 -1.43897e-05 0)
(0.296712 -1.24948e-05 0)
(0.296716 -1.03268e-05 0)
(0.296719 -8.14116e-06 0)
(0.296721 -6.12875e-06 0)
(0.296724 -4.41065e-06 0)
(0.296726 -3.03844e-06 0)
(0.296728 -2.00754e-06 0)
(0.296731 -1.27706e-06 0)
(0.296733 -7.86918e-07 0)
(0.296735 -4.74494e-07 0)
(0.296738 -2.84539e-07 0)
(0.29674 -1.7634e-07 0)
(0.296742 -1.18667e-07 0)
(0.296744 -9.01034e-08 0)
(0.296746 -7.56723e-08 0)
(0.296747 -6.68181e-08 0)
(0.296749 -6.00077e-08 0)
(0.29675 -5.43858e-08 0)
(0.296752 -4.96923e-08 0)
(0.296753 -4.55263e-08 0)
(0.296754 -4.19308e-08 0)
(0.296755 -3.85625e-08 0)
(0.296756 -3.54045e-08 0)
(0.296757 -3.25749e-08 0)
(0.296758 -3.01785e-08 0)
(0.296759 -2.78829e-08 0)
(0.296759 -2.56248e-08 0)
(0.29676 -2.31089e-08 0)
(0.296761 -2.07529e-08 0)
(0.296761 -1.88396e-08 0)
(0.296762 -1.73271e-08 0)
(0.296762 -1.60478e-08 0)
(0.296763 -1.46463e-08 0)
(0.296763 -1.30353e-08 0)
(0.296763 -1.14983e-08 0)
(0.296764 -1.02886e-08 0)
(0.296764 -9.42418e-09 0)
(0.296764 -8.81772e-09 0)
(0.296764 -8.39993e-09 0)
(0.296764 -7.53696e-09 0)
(0.296765 -6.83334e-09 0)
(0.296765 -5.435e-09 0)
(0.296765 -4.98969e-09 0)
(0.296765 -3.71888e-09 0)
(0.296765 -4.6949e-09 0)
(0.296765 -2.88542e-09 0)
(0.296765 -5.23141e-09 0)
(0.296765 -6.83431e-10 0)
(0.296766 -5.76227e-09 0)
(0.296766 3.3058e-09 0)
(0.296766 -8.60128e-09 0)
(0.296766 8.42025e-09 0)
(0.296766 -1.49825e-08 0)
(0.296765 1.76963e-08 0)
(0.296767 -2.65138e-08 0)
(0.296765 3.33065e-08 0)
(0.296767 -4.55769e-08 0)
(0.296764 5.71121e-08 0)
(0.296768 -7.34211e-08 0)
(0.296763 8.99004e-08 0)
(0.29677 -1.09218e-07 0)
(0.296761 1.27913e-07 0)
(0.296772 -1.45981e-07 0)
(0.296759 1.60122e-07 0)
(0.296774 -1.67933e-07 0)
(0.296756 1.67344e-07 0)
(0.296777 -1.54146e-07 0)
(0.296754 1.27781e-07 0)
(0.296779 -7.40201e-08 0)
(0.296752 -6.78135e-09 0)
(0.296779 9.55776e-08 0)
(0.296753 -1.85021e-07 0)
(0.296777 2.71913e-07 0)
(0.296756 -3.3253e-07 0)
(0.296774 3.63477e-07 0)
(0.29676 -3.37955e-07 0)
(0.29677 2.75017e-07 0)
(0.296762 -1.42937e-07 0)
(0.296769 -3.58702e-08 0)
(0.29676 2.00309e-07 0)
(0.296772 -2.92262e-07 0)
(0.296756 3.25285e-07 0)
(0.296776 -2.24145e-07 0)
(0.296751 8.61466e-08 0)
(0.296778 8.58557e-08 0)
(0.296747 -1.02652e-07 0)
(0.296781 1.35152e-07 0)
(0.296739 7.03444e-08 0)
(0.296785 -7.42555e-09 0)
(0.296723 2.55777e-07 0)
(0.296791 1.69952e-07 0)
(0.296699 2.233e-07 0)
(0.29679 7.5009e-07 0)
(0.296655 1.13075e-07 0)
(0.296787 1.89082e-06 0)
(0.296555 2.42909e-08 0)
(0.296778 1.73287e-06 0)
(0.296394 1.07749e-05 0)
(1.00792 0.00181057 0)
(1.00658 0.00271558 0)
(1.00339 0.00385336 0)
(1.0004 0.00498981 0)
(0.997885 0.00574081 0)
(0.995833 0.00599247 0)
(0.994238 0.00580654 0)
(0.993096 0.00539783 0)
(0.992363 0.00504008 0)
(0.991914 0.00487771 0)
(0.991592 0.00488042 0)
(0.99118 0.00496603 0)
(0.990477 0.00507261 0)
(0.989374 0.0051721 0)
(0.98786 0.00525189 0)
(0.986007 0.00530999 0)
(0.983819 0.00536654 0)
(0.981305 0.00543738 0)
(0.978477 0.00551605 0)
(0.975413 0.00557791 0)
(0.972219 0.00560242 0)
(0.968935 0.0055931 0)
(0.965581 0.00555677 0)
(0.962107 0.00550425 0)
(0.958489 0.00544491 0)
(0.954708 0.00538175 0)
(0.950773 0.00531779 0)
(0.946712 0.00526543 0)
(0.942497 0.00523974 0)
(0.93812 0.00525442 0)
(0.933515 0.00531555 0)
(0.928654 0.00542278 0)
(0.923501 0.00555431 0)
(0.918072 0.00565977 0)
(0.912426 0.00570303 0)
(0.906598 0.0056802 0)
(0.900586 0.00561165 0)
(0.89438 0.00551158 0)
(0.887967 0.00541092 0)
(0.881329 0.00536158 0)
(0.874398 0.00539132 0)
(0.867167 0.00545946 0)
(0.859718 0.00547167 0)
(0.8521 0.0053727 0)
(0.84442 0.00518014 0)
(0.836736 0.00498266 0)
(0.829032 0.00483794 0)
(0.821379 0.00468466 0)
(0.81385 0.00443849 0)
(0.806551 0.00407789 0)
(0.799579 0.00368519 0)
(0.792972 0.00329222 0)
(0.786831 0.00288166 0)
(0.78115 0.00244504 0)
(0.776007 0.00197663 0)
(0.771431 0.00154921 0)
(0.7674 0.00116443 0)
(0.763954 0.000819493 0)
(0.761 0.000524499 0)
(0.758501 0.000294901 0)
(0.756359 0.00013884 0)
(0.754492 4.8688e-05 0)
(0.752785 1.70305e-05 0)
(0.751165 2.81863e-05 0)
(0.74958 7.24056e-05 0)
(0.747971 0.000139734 0)
(0.74632 0.000199147 0)
(0.744646 0.000256156 0)
(0.742985 0.00027238 0)
(0.741399 0.000239929 0)
(0.739937 0.00018341 0)
(0.738621 0.000134248 0)
(0.737445 0.000105734 0)
(0.736393 8.77508e-05 0)
(0.735454 7.20006e-05 0)
(0.734621 5.71478e-05 0)
(0.733895 4.36528e-05 0)
(0.733274 3.10249e-05 0)
(0.732755 1.91299e-05 0)
(0.732335 8.14637e-06 0)
(0.732015 -2.44282e-06 0)
(0.731798 -1.27576e-05 0)
(0.731681 -2.46058e-05 0)
(0.73166 -3.70162e-05 0)
(0.731725 -4.66e-05 0)
(0.731867 -5.42205e-05 0)
(0.732082 -6.06096e-05 0)
(0.732371 -6.58661e-05 0)
(0.732742 -6.97015e-05 0)
(0.733203 -7.16172e-05 0)
(0.733754 -7.04627e-05 0)
(0.734385 -6.55612e-05 0)
(0.735071 -5.69591e-05 0)
(0.735777 -4.54235e-05 0)
(0.736464 -3.22296e-05 0)
(0.737098 -1.87015e-05 0)
(0.737652 -6.41156e-06 0)
(0.73811 3.0839e-06 0)
(0.738472 9.57979e-06 0)
(0.738744 1.32566e-05 0)
(0.738938 1.46583e-05 0)
(0.739072 1.43506e-05 0)
(0.739159 1.29081e-05 0)
(0.739214 1.08557e-05 0)
(0.739248 8.60325e-06 0)
(0.739268 6.44213e-06 0)
(0.739279 4.55086e-06 0)
(0.739286 3.01399e-06 0)
(0.739291 1.84156e-06 0)
(0.739295 9.97297e-07 0)
(0.739298 4.22038e-07 0)
(0.739301 5.09318e-08 0)
(0.739303 -1.72775e-07 0)
(0.739306 -2.98557e-07 0)
(0.739309 -3.57112e-07 0)
(0.739311 -3.77465e-07 0)
(0.739313 -3.75181e-07 0)
(0.739315 -3.59582e-07 0)
(0.739317 -3.37707e-07 0)
(0.739319 -3.13348e-07 0)
(0.73932 -2.88697e-07 0)
(0.739322 -2.64341e-07 0)
(0.739323 -2.41409e-07 0)
(0.739324 -2.20213e-07 0)
(0.739325 -2.00747e-07 0)
(0.739326 -1.82732e-07 0)
(0.739327 -1.66058e-07 0)
(0.739328 -1.50747e-07 0)
(0.739329 -1.36819e-07 0)
(0.739329 -1.24039e-07 0)
(0.73933 -1.12012e-07 0)
(0.73933 -1.00848e-07 0)
(0.739331 -9.08285e-08 0)
(0.739331 -8.19413e-08 0)
(0.739331 -7.41329e-08 0)
(0.739332 -6.67374e-08 0)
(0.739332 -5.95775e-08 0)
(0.739332 -5.30677e-08 0)
(0.739332 -4.7561e-08 0)
(0.739333 -4.26448e-08 0)
(0.739333 -3.88828e-08 0)
(0.739333 -3.46186e-08 0)
(0.739333 -3.14958e-08 0)
(0.739333 -2.69546e-08 0)
(0.739333 -2.48379e-08 0)
(0.739333 -1.94816e-08 0)
(0.739333 -2.0493e-08 0)
(0.739333 -1.35578e-08 0)
(0.739333 -1.98092e-08 0)
(0.739333 -6.7008e-09 0)
(0.739334 -2.14706e-08 0)
(0.739333 4.42991e-09 0)
(0.739334 -2.85492e-08 0)
(0.739333 2.08289e-08 0)
(0.739335 -4.58449e-08 0)
(0.739332 4.79781e-08 0)
(0.739336 -7.72366e-08 0)
(0.73933 9.21024e-08 0)
(0.739338 -1.28962e-07 0)
(0.739328 1.57603e-07 0)
(0.739341 -2.03564e-07 0)
(0.739323 2.44493e-07 0)
(0.739347 -2.94795e-07 0)
(0.739317 3.38573e-07 0)
(0.739354 -3.79412e-07 0)
(0.739308 4.0515e-07 0)
(0.739364 -4.10946e-07 0)
(0.739298 3.90262e-07 0)
(0.739373 -3.31794e-07 0)
(0.739289 2.3725e-07 0)
(0.73938 -8.70748e-08 0)
(0.739286 -8.14033e-08 0)
(0.739379 2.55049e-07 0)
(0.739292 -4.18596e-07 0)
(0.739368 5.70573e-07 0)
(0.739306 -6.44816e-07 0)
(0.739352 6.70202e-07 0)
(0.73932 -5.86117e-07 0)
(0.739342 4.70686e-07 0)
(0.739322 -2.55534e-07 0)
(0.739349 7.69304e-08 0)
(0.739306 6.69489e-08 0)
(0.73937 -6.67317e-08 0)
(0.739284 6.86311e-08 0)
(0.739386 7.888e-08 0)
(0.739275 -1.38057e-07 0)
(0.739387 3.48459e-07 0)
(0.739275 -2.94991e-07 0)
(0.739388 4.87598e-07 0)
(0.739263 -1.26975e-07 0)
(0.739403 3.68602e-07 0)
(0.739236 2.41334e-07 0)
(0.739418 5.56322e-07 0)
(0.739212 4.45916e-07 0)
(0.739414 1.51346e-06 0)
(0.739182 8.44652e-07 0)
(0.7394 2.3131e-06 0)
(0.739121 3.62502e-06 0)
(0.739359 1.10939e-06 0)