/*--------------------------------*- C++ -*----------------------------------*\
| =========                 |                                                 |
| \\      /  F ield         | OpenFOAM: The Open Source CFD Toolbox           |
|  \\    /   O peration     | Version:  v2012                                 |
|   \\  /    A nd           | Website:  www.openfoam.com                      |
|    \\/     M anipulation  |                                                 |
\*---------------------------------------------------------------------------*/
FoamFile
{
    version     2.0;
    format      ascii;
    class       volScalarField;
    location    "0.9";
    object      p;
}
// * * * * * * * * * * * * * * * * * * * * * * * * * * * * * * * * * * * * * //

dimensions      [0 2 -2 0 0 0 0];


internalField   nonuniform List<scalar> 
8800
(
8.13181e-10
0.000704049
0.000710101
0.000677398
0.000455169
0.000317587
7.91045e-05
-0.000101669
-0.000329672
-0.000539257
-0.000743895
-0.000951047
-0.00120929
-0.00148807
-0.00185426
-0.00226206
-0.00278476
-0.00340214
-0.00431603
-0.00605764
3.75634e-06
0.000701594
0.000711006
0.00067585
0.000457662
0.000315856
8.12618e-05
-0.000102795
-0.000327088
-0.000540094
-0.000745616
-0.000958666
-0.0012039
-0.00149742
-0.00184412
-0.00227499
-0.00277638
-0.00348014
-0.00443632
-0.00646752
1.0508e-05
0.000696027
0.000713114
0.000672355
0.000463234
0.000311458
8.4421e-05
-0.000105
-0.000328499
-0.000540516
-0.000749479
-0.000958452
-0.00120389
-0.00149511
-0.00184606
-0.002293
-0.0028491
-0.0035465
-0.00440255
-0.00621566
1.76022e-05
0.000690232
0.000713684
0.000671765
0.000466607
0.000312863
8.09853e-05
-9.63048e-05
-0.000344991
-0.00053161
-0.000765584
-0.000954664
-0.00120882
-0.00148693
-0.00184499
-0.00228315
-0.00300407
-0.00392022
-0.00518328
-0.00627108
2.9281e-05
0.000677853
0.000718446
0.000664875
0.000479433
0.000300369
9.44396e-05
-0.000108553
-0.000330813
-0.000548621
-0.000752945
-0.00096767
-0.00121135
-0.00150179
-0.00184235
-0.00228956
-0.00284657
-0.00356337
-0.00456068
-0.00670987
4.17182e-05
0.00066527
0.000719968
0.000663167
0.00048641
0.000298646
9.7283e-05
-0.000111997
-0.000336419
-0.000552725
-0.000756814
-0.000975193
-0.00121477
-0.00150714
-0.00182737
-0.00227064
-0.00283112
-0.00373498
-0.00507358
-0.00765052
5.81298e-05
0.000647372
0.000723587
0.000659826
0.00049493
0.000300838
9.68965e-05
-0.000112735
-0.000341285
-0.000555742
-0.000766113
-0.000981285
-0.00122738
-0.00149932
-0.00183635
-0.00226138
-0.00285445
-0.00371228
-0.00514392
-0.00783426
7.94551e-05
0.000621628
0.000728422
0.000655119
0.00049877
0.000305179
0.000103567
-0.000116108
-0.000344017
-0.000565904
-0.000773877
-0.000997953
-0.00122859
-0.00150344
-0.00183174
-0.0022668
-0.00286408
-0.00378027
-0.00533151
-0.00821495
0.000102613
0.000606762
0.000715775
0.000664415
0.000493875
0.000308112
0.000112822
-0.000132251
-0.000345927
-0.000559756
-0.000787576
-0.00100721
-0.00123991
-0.00150513
-0.00183899
-0.00227987
-0.00290592
-0.00387641
-0.00552923
-0.00855653
0.000133277
0.000576991
0.000712961
0.000651881
0.000502364
0.000326309
0.000113085
-0.00013134
-0.000357113
-0.000581536
-0.00079935
-0.00101401
-0.00124446
-0.00151184
-0.00185074
-0.00230452
-0.00296108
-0.00398674
-0.00572526
-0.00885239
0.000165086
0.000557796
0.000697687
0.000641239
0.000516541
0.000331342
9.73483e-05
-0.000118552
-0.000362193
-0.000600204
-0.000811771
-0.00101905
-0.00125061
-0.00152323
-0.00186941
-0.00234038
-0.00302851
-0.0041073
-0.00591687
-0.00912113
0.000203038
0.000539808
0.00067007
0.000634218
0.000520425
0.000334162
0.000111518
-0.000119283
-0.000372963
-0.000615229
-0.000825154
-0.00102894
-0.00126083
-0.00153934
-0.00189581
-0.00238595
-0.00310629
-0.00423341
-0.00610365
-0.0093714
0.000245632
0.000524786
0.000635159
0.000622834
0.000509841
0.000347162
0.000136809
-0.00013015
-0.000390283
-0.000624918
-0.000835737
-0.00104108
-0.00127457
-0.0015594
-0.00192826
-0.00243895
-0.00319122
-0.0043621
-0.00628471
-0.00960697
0.00029098
0.000513612
0.000603971
0.000599468
0.000499318
0.000355672
0.00014915
-0.000131181
-0.000400274
-0.000634949
-0.000846781
-0.00105509
-0.00129135
-0.00158394
-0.0019666
-0.00249909
-0.00328192
-0.0044921
-0.00645857
-0.00982379
0.00033247
0.000514981
0.000577374
0.000562172
0.00048141
0.0003501
0.000159277
-0.000114987
-0.00040267
-0.000649934
-0.000862246
-0.00107153
-0.00131128
-0.00161249
-0.00201003
-0.00256456
-0.00337654
-0.00462212
-0.00662567
-0.0100274
0.000373218
0.000520948
0.000559508
0.000523319
0.00044976
0.000330077
0.000160182
-9.17243e-05
-0.000391971
-0.000659345
-0.000880647
-0.00109119
-0.00133519
-0.00164545
-0.00205809
-0.00263389
-0.00347319
-0.00475037
-0.00678649
-0.0102202
0.000415114
0.000527595
0.000544819
0.000493685
0.000411539
0.000296544
0.000138035
-8.31382e-05
-0.000366633
-0.000649426
-0.000890603
-0.00111341
-0.00136375
-0.00168322
-0.00211076
-0.00270664
-0.00357057
-0.00487564
-0.00693982
-0.0104
0.000455815
0.00053613
0.000531031
0.000469923
0.000376562
0.000257818
0.00010322
-9.84507e-05
-0.00034954
-0.000624734
-0.000885524
-0.00112966
-0.00139463
-0.00172585
-0.00216769
-0.00278194
-0.00366755
-0.00499642
-0.00708476
-0.0105679
0.000491989
0.000546719
0.000520065
0.00044559
0.000341764
0.000218502
6.85545e-05
-0.000121278
-0.000350003
-0.00060701
-0.000871337
-0.00113534
-0.00142066
-0.00176901
-0.00222682
-0.00285813
-0.00376254
-0.00511121
-0.00721951
-0.0107215
0.000523383
0.000557688
0.000512891
0.000420879
0.000306828
0.000179501
3.44541e-05
-0.000145158
-0.000359943
-0.000601155
-0.000860065
-0.00113445
-0.00143952
-0.0018079
-0.00228405
-0.0029324
-0.00385332
-0.00521874
-0.00734346
-0.0108613
0.000550654
0.000567517
0.000505862
0.000397215
0.000272052
0.000141138
9.23888e-08
-0.000169858
-0.000372772
-0.00060256
-0.000854715
-0.00113371
-0.00145318
-0.00184072
-0.00233561
-0.00300108
-0.00393737
-0.00531717
-0.00745501
-0.010985
0.000573433
0.000575224
0.000497812
0.00037511
0.000239044
0.000103761
-3.42176e-05
-0.000195459
-0.000387312
-0.000607347
-0.000854
-0.00113454
-0.00146412
-0.00186711
-0.00237939
-0.00306108
-0.0040116
-0.00540392
-0.00755375
-0.0110959
0.0005903
0.00057927
0.000489735
0.000354554
0.000207995
6.78496e-05
-6.79992e-05
-0.000221637
-0.000403203
-0.000613928
-0.000855128
-0.00113597
-0.0014719
-0.00188658
-0.0024133
-0.00310951
-0.00407278
-0.00547576
-0.00763532
-0.0111866
0.00060062
0.000579559
0.000480036
0.000334061
0.000178504
3.39391e-05
-0.000100309
-0.000247491
-0.000419772
-0.000621171
-0.000855959
-0.00113512
-0.00147444
-0.00189679
-0.00243437
-0.00314265
-0.00411702
-0.0055289
-0.00769588
-0.0112542
0.000604282
0.000575601
0.000466916
0.000312537
0.000150396
2.60548e-06
-0.000130334
-0.000271957
-0.00043607
-0.000628241
-0.000855264
-0.00112972
-0.00146826
-0.001894
-0.00243871
-0.003156
-0.00413969
-0.00556001
-0.00773349
-0.0112977
0.000599286
0.000565234
0.00045078
0.000290491
0.000123566
-2.6407e-05
-0.000157936
-0.000294366
-0.000450531
-0.000633672
-0.000851872
-0.00111874
-0.00145104
-0.00187311
-0.00241804
-0.00314102
-0.00413435
-0.00556548
-0.00774928
-0.0113234
0.00058489
0.000547517
0.000430802
0.000267613
9.72854e-05
-5.42702e-05
-0.000183923
-0.000314485
-0.000461638
-0.000634104
-0.000842608
-0.00110111
-0.00142391
-0.00183231
-0.00235995
-0.00306507
-0.00404447
-0.00547082
-0.00766063
-0.0112466
0.000559268
0.000521874
0.00040608
0.0002433
7.17175e-05
-8.12449e-05
-0.000209725
-0.000334487
-0.000469848
-0.000625853
-0.000817761
-0.00106546
-0.00138869
-0.00180856
-0.002353
-0.00307218
-0.00405268
-0.00546684
-0.00763759
-0.0112121
0.00051943
0.000485767
0.000376218
0.000217639
4.74726e-05
-0.000105906
-0.000234983
-0.000357781
-0.000485478
-0.000621929
-0.000777091
-0.000971393
-0.00123016
-0.00158451
-0.00207535
-0.0027668
-0.00374107
-0.0051768
-0.00737762
-0.0109762
0.00046464
0.000435658
0.000335598
0.000187484
2.4928e-05
-0.000122403
-0.000245766
-0.000364557
-0.000492876
-0.000638766
-0.000813422
-0.00103279
-0.00131462
-0.00167922
-0.00215639
-0.00280108
-0.00370482
-0.00506394
-0.00720673
-0.010768
0.000398723
0.00037751
0.000280752
0.000133618
-2.82387e-05
-0.000171702
-0.000278956
-0.000359723
-0.000426273
-0.00048715
-0.00055814
-0.000662844
-0.000830473
-0.00109509
-0.00150127
-0.00211389
-0.00304776
-0.00445761
-0.00667621
-0.0103676
0.000296744
0.000310623
0.000258231
0.000129916
-3.76728e-05
-0.000207272
-0.000362324
-0.000506985
-0.000650167
-0.000787162
-0.00092255
-0.00106374
-0.00122809
-0.00143363
-0.00171109
-0.00211058
-0.00273777
-0.00376501
-0.00553268
-0.00874513
0.000202639
0.000156247
8.19528e-05
-4.96663e-06
-8.35181e-05
-0.000140351
-0.000172946
-0.00019435
-0.000206099
-0.000202972
-0.000191736
-0.000195717
-0.000253633
-0.000402228
-0.000692865
-0.00120067
-0.0020481
-0.00344344
-0.00575021
-0.00969601
0.000159302
0.000136865
5.07993e-05
-7.54406e-05
-0.000238554
-0.000444599
-0.000679581
-0.00094077
-0.00118988
-0.00137121
-0.00142631
-0.001345
-0.00126057
-0.00125831
-0.00134941
-0.00141795
-0.00123496
-0.000465389
0.00136188
0.00501185
-0.000194925
-0.000228218
-0.000170271
-6.7432e-05
5.51218e-05
0.000166184
0.000230354
0.000242636
0.000247851
0.000286013
0.000354186
0.0004068
0.000412535
0.000306712
1.97452e-05
-0.000508847
-0.00142572
-0.00296363
-0.00547789
-0.00956265
-0.000123174
-0.000121225
-0.000226182
-0.000396194
-0.000605401
-0.000817557
-0.000976974
-0.00103768
-0.000988994
-0.000882281
-0.000772102
-0.000677769
-0.000572932
-0.000419647
-0.000128481
0.000382383
0.00128192
0.00280257
0.00531248
0.00947863
-0.000645055
-0.000626565
-0.000443256
-0.000174991
0.000122212
0.000403041
0.000616502
0.000715456
0.000740846
0.000777904
0.000868952
0.00099316
0.0010911
0.00109132
0.000912079
0.000441745
-0.000476997
-0.00205632
-0.00463694
-0.00886085
-0.000552343
-0.000560307
-0.000649831
-0.000774099
-0.000865016
-0.000873489
-0.000809806
-0.000713123
-0.000591269
-0.000423821
-0.000187856
0.000131023
0.000547355
0.00108308
0.00177713
0.00269074
0.0039313
0.00568416
0.00828838
0.012406
-0.00103414
-0.000975149
-0.00076119
-0.000479861
-0.000179133
0.000135661
0.000460092
0.000762768
0.000999638
0.00115435
0.00130739
0.00155161
0.00189934
0.00227057
0.00252556
0.0025147
0.00207835
0.000998769
-0.0011019
-0.00493567
-0.0010591
-0.00106125
-0.00105194
-0.00106411
-0.00110972
-0.00115656
-0.00115152
-0.00104735
-0.000803782
-0.00038579
0.000221256
0.00102084
0.00201296
0.00320917
0.00462105
0.0062588
0.00815519
0.0104124
0.013293
0.0173933
-0.00771705
-0.00695125
-0.00423719
-0.00157921
0.000485972
0.00191267
0.00277432
0.00315178
0.00310893
0.00272044
0.00209459
0.00136241
0.000640435
5.50826e-06
-0.000506904
-0.000892814
-0.00116929
-0.00136492
-0.00151026
-0.00163197
-0.00175008
-0.00187802
-0.00202353
-0.00219003
-0.00237808
-0.00258645
-0.00281314
-0.00305567
-0.00331161
-0.00357862
-0.00385502
-0.00413958
-0.00443182
-0.00473155
-0.00503916
-0.00535517
-0.0056805
-0.00601601
-0.00636274
-0.00672171
-0.00709392
-0.00748036
-0.00788192
-0.00829921
-0.00873257
-0.0091818
-0.00964565
-0.010123
-0.0106098
-0.0111025
-0.0115943
-0.012078
-0.012545
-0.0129855
-0.0133912
-0.0137531
-0.0140662
-0.0143274
-0.0145362
-0.0146984
-0.0148204
-0.0149126
-0.0149861
-0.0150509
-0.0151151
-0.0151856
-0.0152674
-0.0153627
-0.0154742
-0.015604
-0.0157518
-0.0159176
-0.0161008
-0.0163003
-0.0165136
-0.0167397
-0.0169779
-0.0172264
-0.0174834
-0.0177478
-0.0180176
-0.0182922
-0.0185708
-0.018854
-0.0191423
-0.0194362
-0.019735
-0.0200381
-0.0203435
-0.0206513
-0.0209602
-0.021271
-0.0215842
-0.0219007
-0.0222217
-0.0225474
-0.0228773
-0.0232117
-0.023548
-0.0238857
-0.0242238
-0.0245628
-0.0249055
-0.0252538
-0.0256086
-0.0259688
-0.0263296
-0.0266913
-0.0270511
-0.0274128
-0.0277806
-0.0281537
-0.0285331
-0.0289186
-0.0292996
-0.0296802
-0.0300638
-0.0304506
-0.0308466
-0.0312474
-0.031645
-0.0320472
-0.032451
-0.0328565
-0.0332678
-0.0336796
-0.0340951
-0.0345234
-0.0349448
-0.0353611
-0.0357875
-0.0362217
-0.0366605
-0.037104
-0.0375322
-0.0379628
-0.0384199
-0.0388827
-0.039329
-0.0397731
-0.0402184
-0.040681
-0.0411672
-0.0416417
-0.0420823
-0.0425424
-0.0430386
-0.0435269
-0.0439898
-0.0444684
-0.0449665
-0.0454609
-0.0459453
-0.0464408
-0.0469431
-0.0474478
-0.0479508
-0.0484609
-0.0489725
-0.0494903
-0.0500088
-0.0505322
-0.0510566
-0.0515885
-0.0521206
-0.0526582
-0.0531961
-0.0537423
-0.054288
-0.0548409
-0.0553936
-0.0559537
-0.0565129
-0.05708
-0.057647
-0.0582225
-0.0587963
-0.0593789
-0.0599595
-0.0605493
-0.0611365
-0.0617327
-0.0623261
-0.062929
-0.0635277
-0.0641363
-0.0647388
-0.0653511
-0.0659555
-0.0665688
-0.0671712
-0.0677813
-0.0683751
-0.0689731
-0.0695459
-0.070115
-0.0706412
-0.0711472
-0.071563
-0.0719412
-0.00830514
-0.00738545
-0.00451148
-0.00176387
0.000399921
0.001932
0.00286143
0.00324782
0.00317112
0.00274006
0.00208707
0.00134516
0.000623249
-8.91975e-06
-0.0005199
-0.000906427
-0.00118453
-0.0013816
-0.00152747
-0.00164881
-0.00176591
-0.00189268
-0.00203713
-0.00220289
-0.00239051
-0.00259869
-0.00282537
-0.00306791
-0.00332393
-0.00359089
-0.00386725
-0.0041516
-0.00444364
-0.00474303
-0.00505024
-0.00536577
-0.00569049
-0.00602537
-0.00637126
-0.00672934
-0.00710049
-0.00748573
-0.00788588
-0.0083016
-0.00873304
-0.00918019
-0.00964151
-0.0101158
-0.010599
-0.0110877
-0.0115757
-0.0120555
-0.0125192
-0.0129574
-0.0133626
-0.0137254
-0.0140402
-0.0143038
-0.014515
-0.0146798
-0.0148043
-0.0148987
-0.014974
-0.0150407
-0.0151065
-0.0151783
-0.0152611
-0.0153572
-0.0154693
-0.0155996
-0.015748
-0.0159142
-0.0160975
-0.0162973
-0.0165108
-0.0167368
-0.016975
-0.0172236
-0.0174807
-0.0177451
-0.0180148
-0.0182896
-0.0185683
-0.0188516
-0.01914
-0.019434
-0.0197328
-0.0200359
-0.0203413
-0.0206491
-0.0209581
-0.021269
-0.0215823
-0.021899
-0.02222
-0.0225458
-0.0228757
-0.0232101
-0.0235464
-0.0238842
-0.0242224
-0.0245615
-0.0249043
-0.0252526
-0.0256075
-0.0259677
-0.0263285
-0.0266903
-0.0270501
-0.0274118
-0.0277797
-0.0281528
-0.0285322
-0.0289178
-0.0292988
-0.0296794
-0.030063
-0.0304499
-0.0308459
-0.0312468
-0.0316443
-0.0320466
-0.0324504
-0.0328559
-0.0332673
-0.0336791
-0.0340945
-0.0345229
-0.0349444
-0.0353606
-0.035787
-0.0362213
-0.0366601
-0.0371037
-0.0375319
-0.0379624
-0.0384196
-0.0388825
-0.0393288
-0.0397728
-0.040218
-0.0406807
-0.041167
-0.0416416
-0.042082
-0.0425421
-0.0430385
-0.0435268
-0.0439896
-0.0444682
-0.0449664
-0.0454608
-0.0459452
-0.0464407
-0.046943
-0.0474477
-0.0479507
-0.0484608
-0.0489724
-0.0494902
-0.0500087
-0.0505321
-0.0510565
-0.0515885
-0.0521206
-0.0526581
-0.0531961
-0.0537422
-0.054288
-0.0548408
-0.0553936
-0.0559536
-0.0565128
-0.0570799
-0.0576469
-0.0582224
-0.0587963
-0.0593789
-0.0599595
-0.0605492
-0.0611364
-0.0617327
-0.0623261
-0.062929
-0.0635277
-0.0641363
-0.0647388
-0.0653511
-0.0659555
-0.0665688
-0.0671713
-0.0677813
-0.0683751
-0.0689731
-0.069546
-0.0701151
-0.0706412
-0.0711475
-0.0715643
-0.0719416
-0.00830034
-0.00780044
-0.00516972
-0.00236519
5.79839e-05
0.00186281
0.00297627
0.003413
0.00328569
0.0027768
0.00207025
0.00130916
0.000589178
-3.47749e-05
-0.000539327
-0.000923333
-0.00120185
-0.00140026
-0.00154694
-0.001668
-0.00178398
-0.00190923
-0.0020523
-0.0022171
-0.00240429
-0.00261249
-0.0028395
-0.00308254
-0.00333906
-0.00360649
-0.00388315
-0.0041677
-0.00445974
-0.00475905
-0.00506596
-0.00538107
-0.00570513
-0.00603918
-0.00638403
-0.00674081
-0.00711042
-0.0074938
-0.00789175
-0.00830479
-0.00873295
-0.009176
-0.00963229
-0.0101002
-0.0105761
-0.0110563
-0.0115352
-0.0120059
-0.0124609
-0.0128921
-0.0132914
-0.0136511
-0.0139651
-0.0142309
-0.0144475
-0.014619
-0.0147521
-0.0148554
-0.014939
-0.0150132
-0.0150855
-0.0151624
-0.0152492
-0.0153487
-0.0154634
-0.0155958
-0.0157463
-0.0159145
-0.0160991
-0.0162997
-0.0165138
-0.01674
-0.0169778
-0.0172259
-0.0174825
-0.0177463
-0.0180156
-0.0182901
-0.0185688
-0.0188522
-0.0191408
-0.0194348
-0.0197334
-0.0200361
-0.0203409
-0.0206483
-0.0209569
-0.0212678
-0.0215814
-0.0218984
-0.0222198
-0.0225456
-0.0228754
-0.0232094
-0.0235451
-0.0238827
-0.0242209
-0.0245604
-0.0249037
-0.0252523
-0.025607
-0.0259668
-0.0263271
-0.0266887
-0.0270487
-0.0274108
-0.0277791
-0.0281523
-0.0285313
-0.0289166
-0.0292974
-0.0296781
-0.030062
-0.0304491
-0.0308452
-0.0312459
-0.0316432
-0.0320455
-0.0324494
-0.032855
-0.0332665
-0.0336783
-0.0340935
-0.034522
-0.0349435
-0.0353598
-0.0357864
-0.0362206
-0.0366592
-0.0371029
-0.0375312
-0.0379617
-0.038419
-0.0388817
-0.0393279
-0.0397722
-0.0402176
-0.0406801
-0.0411663
-0.041641
-0.0420815
-0.0425416
-0.043038
-0.0435264
-0.0439891
-0.0444678
-0.0449661
-0.0454604
-0.0459448
-0.0464404
-0.0469427
-0.0474474
-0.0479504
-0.0484606
-0.0489722
-0.04949
-0.0500085
-0.050532
-0.0510563
-0.0515883
-0.0521204
-0.052658
-0.0531959
-0.0537421
-0.0542879
-0.0548407
-0.0553935
-0.0559535
-0.0565128
-0.0570799
-0.0576469
-0.0582224
-0.0587962
-0.0593788
-0.0599595
-0.0605492
-0.0611364
-0.0617327
-0.0623261
-0.062929
-0.0635278
-0.0641363
-0.0647389
-0.0653511
-0.0659556
-0.0665689
-0.0671715
-0.0677815
-0.0683755
-0.0689736
-0.0695466
-0.0701161
-0.0706428
-0.0711497
-0.0715716
-0.0719487
-0.00617106
-0.00640004
-0.00563782
-0.00334741
-0.000573139
0.00166065
0.00302198
0.00351108
0.00332979
0.00275071
0.00199982
0.0012259
0.000513476
-9.60183e-05
-0.000587801
-0.000963864
-0.00123898
-0.00143637
-0.00158246
-0.00170215
-0.00181594
-0.00193848
-0.00207896
-0.00224162
-0.0024274
-0.00263487
-0.00286167
-0.00310487
-0.00336167
-0.00362944
-0.00390622
-0.00419086
-0.00448273
-0.00478179
-0.00508818
-0.0054026
-0.00572574
-0.0060586
-0.00640202
-0.00675698
-0.00712444
-0.00750518
-0.00789994
-0.0083091
-0.00873253
-0.00916986
-0.00961948
-0.0100796
-0.0105469
-0.0110175
-0.0114862
-0.0119466
-0.0123919
-0.0128147
-0.0132073
-0.0135633
-0.0138769
-0.0141454
-0.0143683
-0.0145483
-0.0146911
-0.0148047
-0.0148978
-0.0149803
-0.0150599
-0.0151427
-0.0152343
-0.0153379
-0.0154559
-0.0155911
-0.0157438
-0.0159139
-0.0161
-0.0163012
-0.016516
-0.0167424
-0.0169798
-0.0172273
-0.0174831
-0.0177461
-0.0180147
-0.0182888
-0.0185676
-0.0188513
-0.0191401
-0.0194342
-0.0197325
-0.0200347
-0.0203388
-0.0206454
-0.0209536
-0.0212645
-0.0215785
-0.0218962
-0.0222182
-0.0225444
-0.0228739
-0.0232072
-0.0235422
-0.0238793
-0.0242176
-0.0245579
-0.0249021
-0.0252512
-0.0256058
-0.0259649
-0.0263243
-0.0266856
-0.0270459
-0.0274087
-0.0277778
-0.0281513
-0.0285298
-0.0289144
-0.0292948
-0.0296756
-0.0300601
-0.0304479
-0.0308439
-0.0312443
-0.0316413
-0.0320434
-0.0324474
-0.0328533
-0.0332652
-0.0336771
-0.034092
-0.03452
-0.0349416
-0.0353585
-0.0357853
-0.0362193
-0.0366574
-0.037101
-0.03753
-0.037961
-0.0384177
-0.03888
-0.0393263
-0.0397712
-0.040217
-0.0406792
-0.0411648
-0.0416393
-0.0420805
-0.0425411
-0.0430371
-0.0435251
-0.0439881
-0.0444671
-0.0449652
-0.0454595
-0.0459439
-0.0464397
-0.046942
-0.0474467
-0.0479497
-0.04846
-0.0489716
-0.0494894
-0.0500079
-0.0505314
-0.0510558
-0.0515878
-0.05212
-0.0526576
-0.0531956
-0.0537417
-0.0542875
-0.0548404
-0.0553932
-0.0559532
-0.0565125
-0.0570796
-0.0576467
-0.0582221
-0.0587961
-0.0593786
-0.0599594
-0.060549
-0.0611364
-0.0617325
-0.0623261
-0.0629289
-0.0635278
-0.0641362
-0.064739
-0.0653511
-0.0659559
-0.066569
-0.067172
-0.0677818
-0.0683764
-0.0689744
-0.0695483
-0.0701179
-0.0706465
-0.0711542
-0.0715853
-0.0719639
-0.00907226
-0.00869746
-0.00604127
-0.00292627
-0.000101108
0.00199766
0.00323456
0.00363474
0.00339242
0.00277022
0.00199055
0.00120179
0.000485603
-0.000121508
-0.0006092
-0.000982255
-0.00125654
-0.00145467
-0.0016019
-0.00172209
-0.00183544
-0.00195677
-0.00209576
-0.00225712
-0.0024421
-0.0026494
-0.00287654
-0.00312052
-0.00337821
-0.00364693
-0.00392447
-0.00420969
-0.00450187
-0.004801
-0.00510718
-0.00542106
-0.00574341
-0.00607511
-0.0064171
-0.00677015
-0.00713527
-0.00751312
-0.00790432
-0.00830912
-0.00872726
-0.00915823
-0.00960048
-0.0100521
-0.01051
-0.0109705
-0.0114284
-0.0118784
-0.0123137
-0.0127279
-0.0131141
-0.0134664
-0.0137798
-0.0140515
-0.0142808
-0.0144695
-0.0146224
-0.0147467
-0.0148501
-0.0149417
-0.0150291
-0.0151187
-0.0152158
-0.0153241
-0.0154463
-0.0155845
-0.0157396
-0.0159117
-0.0160993
-0.0163014
-0.0165169
-0.0167437
-0.0169809
-0.0172277
-0.0174826
-0.0177449
-0.0180129
-0.0182867
-0.0185657
-0.0188498
-0.0191391
-0.0194334
-0.0197315
-0.0200332
-0.0203364
-0.0206421
-0.0209497
-0.0212605
-0.0215752
-0.0218938
-0.0222166
-0.0225431
-0.0228724
-0.0232049
-0.0235389
-0.0238752
-0.0242137
-0.0245549
-0.0249002
-0.02525
-0.0256045
-0.0259628
-0.0263209
-0.0266817
-0.0270425
-0.0274061
-0.0277763
-0.0281503
-0.028528
-0.0289115
-0.0292915
-0.0296723
-0.0300577
-0.0304463
-0.0308422
-0.0312422
-0.0316388
-0.0320406
-0.0324448
-0.0328511
-0.0332634
-0.0336755
-0.0340898
-0.0345171
-0.034939
-0.0353566
-0.0357838
-0.0362175
-0.0366548
-0.0370983
-0.0375283
-0.0379598
-0.0384158
-0.0388773
-0.0393238
-0.0397694
-0.0402161
-0.040678
-0.0411622
-0.0416365
-0.0420792
-0.0425403
-0.0430353
-0.043523
-0.0439868
-0.044466
-0.0449637
-0.0454578
-0.0459426
-0.0464385
-0.0469409
-0.0474454
-0.0479486
-0.0484589
-0.0489706
-0.0494884
-0.050007
-0.0505305
-0.051055
-0.0515869
-0.0521192
-0.0526568
-0.0531949
-0.053741
-0.0542869
-0.0548397
-0.0553926
-0.0559526
-0.0565121
-0.0570791
-0.0576463
-0.0582216
-0.0587958
-0.0593782
-0.0599591
-0.0605486
-0.0611362
-0.0617322
-0.062326
-0.0629286
-0.0635279
-0.064136
-0.0647392
-0.0653511
-0.0659563
-0.0665692
-0.0671728
-0.0677823
-0.0683778
-0.0689755
-0.069551
-0.0701206
-0.0706528
-0.0711616
-0.0716044
-0.0719874
-0.00992993
-0.00909882
-0.00571267
-0.00224812
0.000505363
0.00239495
0.00342499
0.00370165
0.00340447
0.00275646
0.00196317
0.00116697
0.000447501
-0.000159796
-0.00064574
-0.00101634
-0.00128849
-0.00148516
-0.00163126
-0.00175028
-0.00186206
-0.00198153
-0.00211851
-0.00227811
-0.00246173
-0.00266829
-0.00289527
-0.00313956
-0.00339787
-0.0036673
-0.0039455
-0.00423116
-0.00452358
-0.00482263
-0.00512846
-0.00544159
-0.0057629
-0.00609319
-0.0064334
-0.00678423
-0.00714659
-0.00752115
-0.00790833
-0.00830832
-0.00872072
-0.00914493
-0.0095794
-0.0100223
-0.0104705
-0.0109206
-0.0113679
-0.0118073
-0.0122329
-0.0126387
-0.0130186
-0.0133673
-0.0136805
-0.0139551
-0.0141905
-0.0143878
-0.0145508
-0.0146858
-0.0147998
-0.0149008
-0.0149966
-0.0150933
-0.0151962
-0.0153095
-0.0154358
-0.0155773
-0.0157348
-0.0159089
-0.0160982
-0.0163015
-0.0165176
-0.0167448
-0.0169819
-0.0172281
-0.0174821
-0.0177436
-0.018011
-0.0182845
-0.0185638
-0.0188484
-0.0191383
-0.0194329
-0.0197306
-0.0200316
-0.0203338
-0.0206386
-0.0209456
-0.0212563
-0.0215716
-0.0218912
-0.0222149
-0.0225419
-0.0228708
-0.0232023
-0.0235351
-0.0238707
-0.0242094
-0.0245516
-0.0248982
-0.0252489
-0.0256031
-0.0259603
-0.0263171
-0.0266771
-0.0270386
-0.0274033
-0.0277746
-0.0281491
-0.0285259
-0.0289081
-0.0292875
-0.0296686
-0.0300549
-0.0304445
-0.0308404
-0.0312398
-0.0316358
-0.0320372
-0.0324418
-0.0328486
-0.0332614
-0.0336737
-0.0340872
-0.0345136
-0.0349361
-0.0353545
-0.035782
-0.0362153
-0.0366518
-0.0370951
-0.0375263
-0.0379583
-0.0384134
-0.0388742
-0.0393209
-0.0397673
-0.040215
-0.0406765
-0.041159
-0.0416331
-0.0420777
-0.0425393
-0.0430331
-0.0435204
-0.0439851
-0.0444646
-0.0449619
-0.0454558
-0.045941
-0.046437
-0.0469394
-0.0474438
-0.0479471
-0.0484575
-0.0489694
-0.049487
-0.0500057
-0.0505293
-0.051054
-0.0515858
-0.0521182
-0.0526557
-0.053194
-0.05374
-0.0542861
-0.0548388
-0.0553919
-0.0559518
-0.0565115
-0.0570784
-0.0576459
-0.058221
-0.0587954
-0.0593775
-0.0599588
-0.0605481
-0.061136
-0.0617317
-0.062326
-0.0629283
-0.063528
-0.0641358
-0.0647395
-0.065351
-0.0659569
-0.0665693
-0.0671739
-0.0677829
-0.0683798
-0.0689769
-0.0695547
-0.070124
-0.070661
-0.0711716
-0.0716264
-0.0720169
-0.0103032
-0.00957529
-0.00601113
-0.0023238
0.000565038
0.00249453
0.00348569
0.00369791
0.00335983
0.00269947
0.00190527
0.00110937
0.000389451
-0.000218048
-0.00070297
-0.00107083
-0.00133897
-0.00153127
-0.00167334
-0.0017889
-0.00189762
-0.00201432
-0.00214865
-0.00230587
-0.00248749
-0.00269264
-0.00291878
-0.00316282
-0.00342134
-0.00369119
-0.00396989
-0.00425586
-0.00454841
-0.00484723
-0.00515252
-0.0054647
-0.00578468
-0.00611326
-0.00645132
-0.00679957
-0.00715877
-0.00752961
-0.00791235
-0.00830711
-0.00871337
-0.00913047
-0.00955685
-0.00999069
-0.0104291
-0.0108688
-0.0113055
-0.0117346
-0.0121506
-0.0125481
-0.0129219
-0.0132671
-0.0135797
-0.0138571
-0.014098
-0.0143036
-0.0144764
-0.0146221
-0.0147468
-0.0148577
-0.0149622
-0.0150663
-0.0151754
-0.0152937
-0.0154242
-0.0155691
-0.0157294
-0.0159055
-0.0160966
-0.0163011
-0.0165181
-0.0167458
-0.0169827
-0.0172284
-0.0174814
-0.0177421
-0.0180091
-0.0182823
-0.0185619
-0.0188471
-0.0191376
-0.0194324
-0.0197298
-0.02003
-0.0203311
-0.0206346
-0.020941
-0.0212518
-0.0215679
-0.0218887
-0.0222133
-0.0225407
-0.0228691
-0.0231994
-0.0235309
-0.0238657
-0.0242047
-0.0245481
-0.0248963
-0.0252478
-0.0256015
-0.0259575
-0.0263128
-0.0266722
-0.0270344
-0.0274004
-0.0277728
-0.0281478
-0.0285236
-0.0289044
-0.0292833
-0.0296645
-0.0300519
-0.0304426
-0.0308385
-0.0312372
-0.0316325
-0.0320335
-0.0324385
-0.0328459
-0.0332592
-0.0336716
-0.0340843
-0.03451
-0.0349329
-0.0353522
-0.0357799
-0.0362129
-0.0366485
-0.0370916
-0.0375241
-0.0379568
-0.0384108
-0.0388708
-0.0393178
-0.039765
-0.0402137
-0.0406748
-0.0411556
-0.0416296
-0.042076
-0.0425382
-0.0430307
-0.0435175
-0.0439833
-0.044463
-0.0449598
-0.0454535
-0.0459393
-0.0464354
-0.0469377
-0.047442
-0.0479455
-0.0484559
-0.048968
-0.0494855
-0.0500044
-0.0505279
-0.0510528
-0.0515844
-0.052117
-0.0526545
-0.0531931
-0.0537389
-0.0542852
-0.0548377
-0.0553911
-0.0559508
-0.0565109
-0.0570775
-0.0576453
-0.0582202
-0.0587949
-0.0593768
-0.0599585
-0.0605474
-0.0611358
-0.0617312
-0.062326
-0.0629278
-0.0635281
-0.0641354
-0.06474
-0.0653508
-0.0659577
-0.0665695
-0.0671753
-0.0677836
-0.0683822
-0.0689787
-0.0695591
-0.0701283
-0.0706704
-0.0711838
-0.0716499
-0.0720498
-0.0108235
-0.0101603
-0.00649252
-0.00256226
0.000542095
0.00260005
0.00362884
0.00381549
0.00342911
0.00272572
0.00190188
0.00108746
0.000356357
-0.000257502
-0.000745061
-0.00111256
-0.00137815
-0.00156689
-0.00170527
-0.00181763
-0.00192371
-0.00203824
-0.00217071
-0.00232632
-0.00250662
-0.00271082
-0.00293656
-0.00318067
-0.00343971
-0.00371034
-0.00398992
-0.00427661
-0.00456964
-0.00486857
-0.00517357
-0.00548501
-0.00580374
-0.00613064
-0.0064665
-0.00681207
-0.00716797
-0.00753488
-0.00791299
-0.0083023
-0.00870222
-0.00911202
-0.00953018
-0.00995492
-0.0103835
-0.0108129
-0.0112391
-0.0116579
-0.0120644
-0.0124538
-0.0128215
-0.0131631
-0.013475
-0.0137547
-0.0140008
-0.014214
-0.0143965
-0.0145528
-0.0146883
-0.0148095
-0.0149231
-0.0150351
-0.0151507
-0.0152745
-0.0154094
-0.015558
-0.0157214
-0.0158999
-0.016093
-0.0162991
-0.0165171
-0.0167453
-0.0169822
-0.0172274
-0.0174797
-0.0177396
-0.0180061
-0.0182793
-0.0185592
-0.0188452
-0.0191362
-0.0194314
-0.0197284
-0.0200277
-0.0203276
-0.02063
-0.0209357
-0.0212466
-0.0215636
-0.0218857
-0.0222114
-0.0225391
-0.0228668
-0.0231959
-0.023526
-0.0238601
-0.0241995
-0.0245443
-0.0248941
-0.0252464
-0.0255995
-0.0259542
-0.0263081
-0.0266667
-0.0270298
-0.0273972
-0.0277708
-0.0281464
-0.028521
-0.0289002
-0.0292786
-0.0296601
-0.0300487
-0.0304406
-0.0308363
-0.0312342
-0.0316289
-0.0320295
-0.032435
-0.0328431
-0.0332567
-0.0336693
-0.0340813
-0.034506
-0.0349295
-0.0353497
-0.0357777
-0.0362104
-0.0366451
-0.0370879
-0.0375217
-0.037955
-0.0384081
-0.0388672
-0.0393146
-0.0397625
-0.0402121
-0.0406729
-0.0411522
-0.0416258
-0.0420741
-0.0425368
-0.0430282
-0.0435145
-0.0439813
-0.0444613
-0.0449576
-0.0454511
-0.0459373
-0.0464335
-0.0469359
-0.0474401
-0.0479438
-0.0484542
-0.0489665
-0.0494838
-0.0500029
-0.0505264
-0.0510515
-0.051583
-0.0521158
-0.0526532
-0.0531921
-0.0537377
-0.0542843
-0.0548366
-0.0553903
-0.0559498
-0.0565102
-0.0570766
-0.0576448
-0.0582193
-0.0587945
-0.059376
-0.0599582
-0.0605467
-0.0611356
-0.0617306
-0.062326
-0.0629273
-0.0635283
-0.0641351
-0.0647405
-0.0653507
-0.0659587
-0.0665698
-0.0671769
-0.0677845
-0.0683849
-0.0689809
-0.0695639
-0.0701336
-0.0706805
-0.0711979
-0.0716739
-0.0720844
-0.0112393
-0.01059
-0.00684174
-0.00274871
0.000522478
0.00270719
0.00380069
0.00398233
0.00354726
0.00278519
0.00191325
0.00106662
0.000316493
-0.000307355
-0.000798503
-0.00116523
-0.00142739
-0.0016115
-0.0017451
-0.00185313
-0.00195555
-0.00206704
-0.00219702
-0.00235054
-0.00252919
-0.00273218
-0.00295723
-0.00320114
-0.00346047
-0.00373166
-0.00401194
-0.00429926
-0.00459267
-0.00489164
-0.00519625
-0.00550683
-0.00582416
-0.00614914
-0.00648254
-0.00682511
-0.00717738
-0.00753999
-0.00791308
-0.00829657
-0.00868981
-0.009092
-0.00950171
-0.00991715
-0.0103358
-0.0107547
-0.0111704
-0.011579
-0.0119761
-0.0123576
-0.0127191
-0.0130571
-0.013368
-0.0136498
-0.0139007
-0.0141213
-0.0143132
-0.01448
-0.0146264
-0.0147581
-0.0148811
-0.0150014
-0.0151239
-0.0152535
-0.0153931
-0.0155457
-0.0157125
-0.0158936
-0.0160888
-0.0162966
-0.0165157
-0.0167445
-0.0169814
-0.0172262
-0.0174778
-0.0177368
-0.018003
-0.0182761
-0.0185565
-0.0188432
-0.0191349
-0.0194304
-0.0197271
-0.0200254
-0.020324
-0.0206251
-0.0209303
-0.0212413
-0.0215593
-0.0218827
-0.0222094
-0.0225375
-0.0228645
-0.0231921
-0.023521
-0.0238543
-0.0241943
-0.0245405
-0.0248919
-0.025245
-0.0255975
-0.0259507
-0.0263032
-0.0266611
-0.0270251
-0.027394
-0.0277688
-0.0281448
-0.0285183
-0.0288959
-0.0292738
-0.0296556
-0.0300454
-0.0304384
-0.0308341
-0.0312312
-0.0316251
-0.0320254
-0.0324314
-0.0328401
-0.0332542
-0.0336669
-0.0340781
-0.0345019
-0.0349259
-0.035347
-0.0357753
-0.0362077
-0.0366416
-0.0370839
-0.0375191
-0.037953
-0.0384052
-0.0388635
-0.0393111
-0.0397597
-0.0402104
-0.0406709
-0.0411486
-0.0416218
-0.042072
-0.0425353
-0.0430255
-0.0435113
-0.0439792
-0.0444594
-0.0449554
-0.0454486
-0.0459354
-0.0464316
-0.0469341