/*--------------------------------*- C++ -*----------------------------------*\
| =========                 |                                                 |
| \\      /  F ield         | OpenFOAM: The Open Source CFD Toolbox           |
|  \\    /   O peration     | Version:  v2012                                 |
|   \\  /    A nd           | Website:  www.openfoam.com                      |
|    \\/     M anipulation  |                                                 |
\*---------------------------------------------------------------------------*/
FoamFile
{
    version     2.0;
    format      ascii;
    class       surfaceScalarField;
    location    "0.9";
    object      phi;
}
// * * * * * * * * * * * * * * * * * * * * * * * * * * * * * * * * * * * * * //

dimensions      [0 3 -1 0 0 0 0];
oriented        oriented;


internalField   nonuniform List<scalar> 
17340
(
3.87607e-06
-1.28647e-07
3.88411e-06
9.37606e-08
3.87662e-06
-8.1287e-08
3.88519e-06
6.52704e-08
3.87788e-06
-5.54306e-08
3.88791e-06
4.08988e-08
3.88062e-06
-3.71623e-08
3.88952e-06
2.70977e-08
3.88365e-06
-2.52105e-08
3.89047e-06
1.88702e-08
3.88321e-06
-1.65288e-08
3.88631e-06
1.58776e-08
3.88273e-06
-9.87563e-09
3.88514e-06
9.79067e-09
3.88277e-06
-5.1036e-09
3.88487e-06
4.84201e-09
3.8812e-06
2.46617e-10
3.87611e-06
8.4678e-09
3.86267e-06
1.83115e-08
2.66982e-08
3.84733e-06
4.17965e-06
-1.22435e-07
4.19325e-06
8.01627e-08
4.18268e-06
-7.0721e-08
4.19406e-06
5.38948e-08
4.18488e-06
-4.62562e-08
4.19613e-06
2.96515e-08
4.18838e-06
-2.94128e-08
4.19657e-06
1.89054e-08
4.19269e-06
-2.13322e-08
4.19431e-06
1.72544e-08
4.19422e-06
-1.6436e-08
4.19468e-06
1.54142e-08
4.19477e-06
-9.96569e-09
4.1939e-06
1.06554e-08
4.19546e-06
-6.66196e-09
4.19193e-06
8.37373e-09
4.1938e-06
-1.61999e-09
4.1829e-06
1.93635e-08
4.17822e-06
2.29957e-08
4.49235e-08
4.15999e-06
4.51278e-06
-1.15151e-07
4.52523e-06
6.77124e-08
4.51404e-06
-5.95333e-08
4.5241e-06
4.38315e-08
4.51522e-06
-3.73708e-08
4.52533e-06
1.95435e-08
4.518e-06
-2.20866e-08
4.52602e-06
1.08811e-08
4.52103e-06
-1.63351e-08
4.52542e-06
1.28655e-08
4.52143e-06
-1.24514e-08
4.52279e-06
1.40605e-08
4.52211e-06
-9.28681e-09
4.52115e-06
1.16083e-08
4.52247e-06
-7.97581e-09
4.52264e-06
8.20426e-09
4.52419e-06
-3.17123e-09
4.51087e-06
3.26788e-08
4.49478e-06
3.90934e-08
6.10815e-08
4.47862e-06
4.87364e-06
-1.07848e-07
4.88581e-06
5.55522e-08
4.87372e-06
-4.74459e-08
4.8841e-06
3.34453e-08
4.87404e-06
-2.73114e-08
4.88586e-06
7.72687e-09
4.87506e-06
-1.12806e-08
4.88913e-06
-3.1916e-09
4.87576e-06
-2.96682e-09
4.89212e-06
-3.49237e-09
4.87666e-06
3.00845e-09
4.894e-06
-3.28651e-09
4.87821e-06
6.50618e-09
4.89087e-06
-1.05314e-09
4.87449e-06
8.40596e-09
4.88466e-06
-1.96871e-09
4.87857e-06
2.92387e-09
4.93043e-06
-1.91792e-08
4.98221e-06
-1.26863e-08
-5.41723e-09
5.04871e-06
5.26311e-06
-1.00313e-07
5.27567e-06
4.29976e-08
5.26392e-06
-3.57014e-08
5.27281e-06
2.45618e-08
5.2655e-06
-2.00092e-08
5.27002e-06
3.20855e-09
5.26884e-06
-1.01044e-08
5.27e-06
-4.34591e-09
5.26935e-06
-2.31306e-09
5.26943e-06
-3.5722e-09
5.26911e-06
3.32712e-09
5.26792e-06
-2.10354e-09
5.26841e-06
6.02192e-09
5.26631e-06
1.04394e-09
5.26864e-06
6.07505e-09
5.26781e-06
-1.13982e-09
5.2666e-06
4.1413e-09
5.25408e-06
-6.66286e-09
5.23909e-06
2.30574e-09
1.2686e-08
5.22098e-06
5.68356e-06
-9.24143e-08
5.69691e-06
2.96492e-08
5.68466e-06
-2.34486e-08
5.69376e-06
1.54549e-08
5.68638e-06
-1.26281e-08
5.68967e-06
-7.59704e-11
5.69001e-06
-1.04439e-08
5.68902e-06
-3.36159e-09
5.69309e-06
-6.38584e-09
5.68853e-06
9.91852e-10
5.69373e-06
-1.86832e-09
5.68699e-06
4.63588e-09
5.68997e-06
3.03392e-09
5.68467e-06
6.34458e-09
5.68835e-06
2.39614e-09
5.68195e-06
5.26429e-09
5.68627e-06
-1.7692e-10
5.67528e-06
4.32477e-09
5.67184e-06
5.74857e-09
2.81511e-08
5.65637e-06
6.13778e-06
-8.43237e-08
6.1513e-06
1.61252e-08
6.14222e-06
-1.43673e-08
6.14767e-06
1.00085e-08
6.14332e-06
-8.28068e-09
6.14208e-06
1.16119e-09
6.14217e-06
-1.05288e-08
6.1446e-06
-5.79721e-09
6.14099e-06
-2.76783e-09
6.14353e-06
-1.55403e-09
6.14124e-06
4.21287e-10
6.14203e-06
3.85265e-09
6.13983e-06
5.22672e-09
6.14042e-06
5.75716e-09
6.13835e-06
4.46695e-09
6.13851e-06
5.10906e-09
6.13412e-06
4.20476e-09
6.12948e-06
8.97313e-09
6.12145e-06
1.37715e-08
3.15662e-08
6.11804e-06
6.62857e-06
-7.63351e-08
6.64107e-06
3.62948e-09
6.63857e-06
-1.18712e-08
6.63717e-06
1.14152e-08
6.63918e-06
-1.02947e-08
6.63066e-06
9.67946e-09
6.63725e-06
-1.71164e-08
6.6315e-06
-4.32279e-11
6.63442e-06
-5.6957e-09
6.631e-06
1.87222e-09
6.63274e-06
-1.3226e-09
6.62957e-06
7.02497e-09
6.63081e-06
3.99015e-09
6.62869e-06
7.86794e-09
6.62855e-06
4.61178e-09
6.626e-06
7.66329e-09
6.62308e-06
7.11996e-09
6.61871e-06
1.33474e-08
6.61285e-06
1.96265e-08
3.34998e-08
6.61092e-06
7.15832e-06
-6.82208e-08
7.17194e-06
-9.99349e-09
7.16602e-06
-5.95726e-09
7.17179e-06
5.64964e-09
7.15747e-06
4.02957e-09
7.17166e-06
-4.51189e-09
7.16288e-06
-8.33763e-09
7.16572e-06
-2.88232e-09
7.16456e-06
-4.54267e-09
7.16373e-06
2.70338e-09
7.15956e-06
2.85401e-09
7.1594e-06
7.17911e-09
7.15834e-06
5.05603e-09
7.15794e-06
8.26745e-09
7.15625e-06
6.2948e-09
7.15436e-06
9.55369e-09
7.15115e-06
1.03391e-08
7.14763e-06
1.68609e-08
7.1441e-06
2.31629e-08
3.44992e-08
7.1431e-06
7.73103e-06
-6.06459e-08
7.74131e-06
-2.02712e-08
7.74314e-06
-7.79415e-09
7.7413e-06
7.49658e-09
7.7388e-06
6.52364e-09
7.73937e-06
-5.08168e-09
7.73287e-06
-1.83499e-09
7.73095e-06
-9.63695e-10
7.73321e-06
-6.79686e-09
7.7323e-06
3.60823e-09
7.73091e-06
4.2492e-09
7.73018e-06
7.90381e-09
7.72926e-06
5.97893e-09
7.72872e-06
8.80891e-09
7.72681e-06
8.2028e-09
7.72503e-06
1.13284e-08
7.72203e-06
1.33411e-08
7.71935e-06
1.95444e-08
7.71691e-06
2.56012e-08
3.51218e-08
7.71629e-06
8.34923e-06
-5.34132e-08
8.35892e-06
-2.99642e-08
8.3625e-06
-1.13739e-08
8.35803e-06
1.19667e-08
8.36275e-06
1.80884e-09
8.35101e-06
6.64943e-09
8.35278e-06
-3.60077e-09
8.3533e-06
-1.48506e-09
8.34911e-06
-2.60468e-09
8.34848e-06
4.23256e-09
8.34779e-06
4.93937e-09
8.34711e-06
8.58489e-09
8.34587e-06
7.22146e-09
8.34503e-06
9.65232e-09
8.3433e-06
9.93321e-09
8.34146e-06
1.31619e-08
8.33898e-06
1.58239e-08
8.33687e-06
2.16574e-08
8.33515e-06
2.73146e-08
3.52705e-08
8.33501e-06
9.01689e-06
-4.66521e-08
9.02584e-06
-3.89205e-08
9.02759e-06
-1.31218e-08
9.02854e-06
1.10157e-08
9.02618e-06
4.1712e-09
9.01839e-06
1.44393e-08
9.01902e-06
-4.23466e-09
9.01883e-06
-1.29129e-09
9.01514e-06
1.08526e-09
9.01401e-06
5.35807e-09
9.01363e-06
5.32174e-09
9.01325e-06
8.96206e-09
9.01191e-06
8.56424e-09
9.01086e-06
1.07041e-08
9.00922e-06
1.15755e-08
9.0075e-06
1.48761e-08
9.00547e-06
1.78606e-08
9.00389e-06
2.32304e-08
9.00278e-06
2.84263e-08
3.5222e-08
9.00283e-06
9.73795e-06
-4.04963e-08
9.73989e-06
-4.08609e-08
9.74586e-06
-1.90913e-08
9.75197e-06
4.90202e-09
9.74753e-06
8.60767e-09
9.74761e-06
1.43584e-08
9.73982e-06
3.55829e-09
9.73639e-06
2.13791e-09
9.73481e-06
2.67146e-09
9.73394e-06
6.22863e-09
9.73282e-06
6.43931e-09
9.73244e-06
9.34197e-09
9.73125e-06
9.75411e-09
9.73013e-06
1.18271e-08
9.72856e-06
1.31448e-08
9.72706e-06
1.63709e-08
9.72539e-06
1.95285e-08
9.72432e-06
2.43074e-08
9.72392e-06
2.88203e-08
3.41005e-08
9.72504e-06
1.05167e-05
-3.50983e-08
1.05147e-05
-3.88763e-08
1.05231e-05
-2.75335e-08
1.05289e-05
-8.2636e-10
1.05276e-05
9.85161e-09
1.05265e-05
1.54646e-08
1.05182e-05
1.18871e-08
1.05135e-05
6.78045e-09
1.05122e-05
3.9953e-09
1.05113e-05
7.15552e-09
1.05098e-05
7.90288e-09
1.05091e-05
1.00787e-08
1.05081e-05
1.07505e-08
1.0507e-05
1.29225e-08
1.05056e-05
1.45241e-08
1.05043e-05
1.76723e-08
1.05031e-05
2.0789e-08
1.05024e-05
2.49413e-08
1.05023e-05
2.8972e-08
3.33175e-08
1.05031e-05
1.13571e-05
-3.00599e-08
1.13543e-05
-3.60695e-08
1.13592e-05
-3.24267e-08
1.13663e-05
-7.90791e-09
1.13682e-05
7.93448e-09
1.13674e-05
1.63297e-08
1.13611e-05
1.81014e-08
1.13544e-05
1.34891e-08
1.13511e-05
7.30435e-09
1.13501e-05
8.22648e-09
1.13491e-05
8.89865e-09
1.1348e-05
1.10845e-08
1.13471e-05
1.17364e-08
1.13461e-05
1.39215e-08
1.13449e-05
1.56729e-08
1.13439e-05
1.87348e-08
1.1343e-05
2.16199e-08
1.13427e-05
2.52537e-08
1.13428e-05
2.88355e-08
3.37533e-08
1.13424e-05
1.22646e-05
-2.5362e-08
1.22636e-05
-3.50461e-08
1.22609e-05
-2.97251e-08
1.22677e-05
-1.47427e-08
1.22735e-05
2.17014e-09
1.22751e-05
1.47631e-08
1.22716e-05
2.1559e-08
1.22641e-05
2.10098e-08
1.22579e-05
1.35114e-08
1.22558e-05
1.03556e-08
1.22549e-05
9.75835e-09
1.22542e-05
1.17732e-08
1.22532e-05
1.27642e-08
1.22523e-05
1.48156e-08
1.22514e-05
1.65954e-08
1.22506e-05
1.94806e-08
1.22502e-05
2.20754e-08
1.22502e-05
2.52282e-08
1.22508e-05
2.81987e-08
3.09819e-08
1.22536e-05
1.32447e-05
-2.11791e-08
1.32427e-05
-3.30119e-08
1.32396e-05
-2.65819e-08
1.32405e-05
-1.57216e-08
1.32456e-05
-2.87271e-09
1.32486e-05
1.17749e-08
1.32502e-05
1.99588e-08
1.32455e-05
2.56785e-08
1.32389e-05
2.00883e-08
1.32347e-05
1.46183e-08
1.32332e-05
1.12763e-08
1.32325e-05
1.23966e-08
1.32318e-05
1.3459e-08
1.32311e-05
1.55511e-08
1.32304e-05
1.72735e-08
1.323e-05
1.99162e-08
1.32299e-05
2.21376e-08
1.32303e-05
2.48553e-08
1.32312e-05
2.73206e-08
3.07556e-08
1.32314e-05
1.43031e-05
-1.75383e-08
1.42982e-05
-2.81489e-08
1.42967e-05
-2.5027e-08
1.42949e-05
-1.39273e-08
1.42956e-05
-3.62574e-09
1.42975e-05
9.93443e-09
1.42999e-05
1.75732e-08
1.43013e-05
2.42471e-08
1.42975e-05
2.38407e-08
1.42931e-05
1.90519e-08
1.42901e-05
1.42961e-08
1.42891e-05
1.33511e-08
1.42886e-05
1.40117e-08
1.42882e-05
1.59461e-08
1.42878e-05
1.76301e-08
1.42877e-05
2.00092e-08
1.4288e-05
2.18687e-08
1.42888e-05
2.41035e-08
1.42901e-05
2.60025e-08
2.76389e-08
1.42932e-05
1.54457e-05
-1.42876e-08
1.54402e-05
-2.25913e-08
1.54378e-05
-2.26469e-08
1.54359e-05
-1.20223e-08
1.54345e-05
-2.27123e-09
1.5435e-05
9.49689e-09
1.54357e-05
1.68489e-08
1.54377e-05
2.2281e-08
1.5438e-05
2.34909e-08
1.54353e-05
2.17974e-08
1.54323e-05
1.72594e-08
1.54305e-05
1.51924e-08
1.54299e-05
1.46146e-08
1.54297e-05
1.6143e-08
1.54297e-05
1.76125e-08
1.543e-05
1.96828e-08
1.54306e-05
2.12812e-08
1.54317e-05
2.29746e-08
1.54333e-05
2.44301e-08
2.66819e-08
1.54343e-05
1.66795e-05
-1.13235e-08
1.6675e-05
-1.8054e-08
1.66705e-05
-1.81738e-08
1.66682e-05
-9.68878e-09
1.66663e-05
-4.19598e-10
1.66658e-05
9.96061e-09
1.66658e-05
1.68354e-08
1.66668e-05
2.13375e-08
1.66677e-05
2.25918e-08
1.66673e-05
2.21504e-08
1.66653e-05
1.93019e-08
1.66635e-05
1.6952e-08
1.66625e-05
1.56485e-08
1.66624e-05
1.62074e-08
1.66627e-05
1.73104e-08
1.66634e-05
1.89741e-08
1.66645e-05
2.02719e-08
1.66659e-05
2.15098e-08
1.66679e-05
2.24778e-08
2.31894e-08
1.66714e-05
1.80117e-05
-8.60737e-09
1.80076e-05
-1.4015e-08
1.80024e-05
-1.29452e-08
1.79991e-05
-6.41347e-09
1.79971e-05
1.62265e-09
1.79962e-05
1.08445e-08
1.7996e-05
1.70864e-08
1.79961e-05
2.11922e-08
1.79966e-05
2.21071e-08
1.79968e-05
2.19856e-08
1.79961e-05
1.99849e-08
1.79948e-05
1.82502e-08
1.79939e-05
1.65205e-08
1.79937e-05
1.63987e-08
1.79943e-05
1.67326e-08
1.79953e-05
1.79383e-08
1.79968e-05
1.88032e-08
1.79986e-05
1.97099e-08
1.80006e-05
2.04349e-08
2.09709e-08
1.80029e-05
1.94502e-05
-6.10211e-09
1.94454e-05
-9.24397e-09
1.94408e-05
-8.38587e-09
1.9437e-05
-2.59662e-09
1.94345e-05
4.16476e-09
1.94332e-05
1.20984e-08
1.94327e-05
1.76093e-08
1.94326e-05
2.13551e-08
1.94326e-05
2.20936e-08
1.94326e-05
2.19194e-08
1.94324e-05
2.01805e-08
1.9432e-05
1.87182e-08
1.94314e-05
1.70786e-08
1.94314e-05
1.6366e-08
1.94321e-05
1.60588e-08
1.94335e-05
1.6577e-08
1.94353e-05
1.69624e-08
1.94375e-05
1.75089e-08
1.94402e-05
1.77892e-08
1.79113e-08
1.94432e-05
2.10035e-05
-3.8313e-09
2.09993e-05
-5.01694e-09
2.09944e-05
-3.45034e-09
2.09901e-05
1.63609e-09
2.09869e-05
7.36332e-09
2.09852e-05
1.38433e-08
2.09843e-05
1.84764e-08
2.0984e-05
2.16962e-08
2.09837e-05
2.23982e-08
2.09836e-05
2.20207e-08
2.09834e-05
2.0321e-08
2.09834e-05
1.87759e-08
2.09834e-05
1.7052e-08
2.09837e-05
1.60316e-08
2.09847e-05
1.51347e-08
2.09863e-05
1.49774e-08
2.09884e-05
1.47875e-08
2.09911e-05
1.48607e-08
2.09941e-05
1.47753e-08
1.46724e-08
2.09973e-05
2.26808e-05
-1.72548e-09
2.26769e-05
-1.14485e-09
2.26719e-05
1.58516e-09
2.26672e-05
6.32358e-09
2.26636e-05
1.10261e-08
2.26612e-05
1.61567e-08
2.266e-05
1.97492e-08
2.26593e-05
2.23526e-08
2.26588e-05
2.28884e-08
2.26585e-05
2.23511e-08
2.26583e-05
2.05135e-08
2.26584e-05
1.86749e-08
2.26588e-05
1.66383e-08
2.26596e-05
1.52419e-08
2.26609e-05
1.38819e-08
2.26627e-05
1.30952e-08
2.26652e-05
1.2329e-08
2.26682e-05
1.18314e-08
2.26716e-05
1.14131e-08
1.11083e-08
2.26752e-05
2.44919e-05
3.15328e-10
2.44876e-05
3.16495e-09
2.44826e-05
6.59638e-09
2.4478e-05
1.08938e-08
2.44741e-05
1.49284e-08
2.44713e-05
1.89284e-08
2.44695e-05
2.16206e-08
2.44685e-05
2.33576e-08
2.44677e-05
2.36354e-08
2.44672e-05
2.28958e-08
2.44668e-05
2.08928e-08
2.44668e-05
1.86288e-08
2.44675e-05
1.5997e-08
2.44687e-05
1.40005e-08
2.44703e-05
1.23112e-08
2.44725e-05
1.08662e-08
2.44754e-05
9.47001e-09
2.44787e-05
8.52044e-09
2.44825e-05
7.65145e-09
7.20714e-09
2.44864e-05
2.64476e-05
2.31745e-09
2.64433e-05
7.41803e-09
2.64381e-05
1.18432e-08
2.64333e-05
1.56285e-08
2.64291e-05
1.91664e-08
2.64259e-05
2.21065e-08
2.64235e-05
2.40394e-08
2.64219e-05
2.49488e-08
2.64209e-05
2.4602e-08
2.64201e-05
2.36813e-08
2.64196e-05
2.14708e-08
2.64193e-05
1.89123e-08
2.64198e-05
1.55297e-08
2.6421e-05
1.27306e-08
2.64232e-05
1.01589e-08
2.6426e-05
8.06937e-09
2.64293e-05
6.19366e-09
2.6433e-05
4.77452e-09
2.64371e-05
3.56075e-09
2.70446e-09
2.64416e-05
2.85593e-05
4.29577e-09
2.85553e-05
1.14831e-08
2.85498e-05
1.73478e-08
2.85447e-05
2.07187e-08
2.85402e-05
2.36404e-08
2.85365e-05
2.58277e-08
2.85334e-05
2.71215e-08
2.85312e-05
2.7163e-08
2.85295e-05
2.63092e-08
2.85287e-05
2.44952e-08
2.85282e-05
2.18914e-08
2.85278e-05
1.93376e-08
2.85276e-05
1.57517e-08
2.85281e-05
1.21882e-08
2.85296e-05
8.66332e-09
2.85322e-05
5.53105e-09
2.85357e-05
2.64378e-09
2.85404e-05
1.1315e-10
2.85452e-05
-1.27219e-09
-2.34945e-09
2.85503e-05
3.08396e-05
6.36372e-09
3.0835e-05
1.60926e-08
3.08298e-05
2.25379e-08
3.08244e-05
2.60851e-08
3.08198e-05
2.83218e-08
3.08156e-05
2.99603e-08
3.08121e-05
3.06246e-08
3.08088e-05
3.04689e-08
3.08058e-05
2.93702e-08
3.08039e-05
2.63589e-08
3.08028e-05
2.29975e-08
3.0803e-05
1.91654e-08
3.08038e-05
1.48732e-08
3.08054e-05
1.06282e-08
3.08075e-05
6.53551e-09
3.08101e-05
2.99136e-09
3.08127e-05
-5.97167e-12
3.08165e-05
-3.69179e-09
3.08215e-05
-6.24853e-09
-8.08487e-09
3.08272e-05
3.33018e-05
8.65469e-09
3.32975e-05
2.03933e-08
3.32916e-05
2.84867e-08
3.32862e-05
3.14314e-08
3.32806e-05
3.38923e-08
3.32764e-05
3.42147e-08
3.32725e-05
3.44666e-08
3.32696e-05
3.345e-08
3.32659e-05
3.30558e-08
3.32621e-05
3.01799e-08
3.32584e-05
2.66526e-08
3.32555e-05
2.20485e-08
3.32534e-05
1.69736e-08
3.32528e-05
1.12349e-08
3.32541e-05
5.23997e-09
3.32579e-05
-8.45486e-10
3.32627e-05
-4.72271e-09
3.32675e-05
-8.56296e-09
3.32731e-05
-1.18456e-08
-1.43177e-08
3.32794e-05
3.59606e-05
1.1212e-08
3.59577e-05
2.32451e-08
3.59509e-05
3.53392e-08
3.59452e-05
3.71141e-08
3.5938e-05
4.10622e-08
3.5932e-05
4.02253e-08
3.59265e-05
3.99704e-08
3.59225e-05
3.74919e-08
3.59193e-05
3.62341e-08
3.59171e-05
3.2388e-08
3.59149e-05
2.88343e-08
3.59135e-05
2.34303e-08
3.59122e-05
1.82676e-08
3.59114e-05
1.20869e-08
3.59102e-05
6.42236e-09
3.59086e-05
7.83164e-10
3.59108e-05
-6.97774e-09
3.59158e-05
-1.35608e-08
3.59209e-05
-1.68998e-08
-2.06394e-08
3.59272e-05
3.8831e-05
1.46995e-08
3.88283e-05
2.59491e-08
3.88233e-05
4.0344e-08
3.88185e-05
4.18889e-08
3.88124e-05
4.71523e-08
3.88055e-05
4.71386e-08
3.87968e-05
4.86203e-08
3.87895e-05
4.48177e-08
3.87816e-05
4.41321e-08
3.87743e-05
3.97204e-08
3.87662e-05
3.68973e-08
3.87591e-05
3.05885e-08
3.87525e-05
2.48332e-08
3.87483e-05
1.62845e-08
3.87466e-05
8.10331e-09
3.87489e-05
-1.53474e-09
3.875e-05
-8.05974e-09
3.87552e-05
-1.87812e-08
3.87658e-05
-2.75102e-08
-3.58025e-08
3.8781e-05
4.19297e-05
2.00557e-08
4.19352e-05
2.04522e-08
4.19211e-05
5.44552e-08
4.1913e-05
4.99928e-08
4.18995e-05
6.06196e-08
4.1898e-05
4.86368e-08
4.18929e-05
5.36814e-08
4.1893e-05
4.47525e-08
4.18885e-05
4.86552e-08
4.18857e-05
4.24901e-08
4.18786e-05
4.39865e-08
4.18727e-05
3.65461e-08
4.18642e-05
3.32431e-08
4.18565e-05
2.40225e-08
4.18455e-05
1.90696e-08
4.18331e-05
1.09424e-08
4.18191e-05
5.92108e-09
4.18036e-05
-3.327e-09
4.17888e-05
-1.26798e-08
-2.81579e-08
4.17812e-05
4.52837e-05
1.95058e-08
4.52797e-05
2.44974e-08
4.52776e-05
5.65628e-08
4.5272e-05
5.5582e-08
4.52591e-05
7.35077e-08
4.5246e-05
6.17384e-08
4.5233e-05
6.66629e-08
4.52209e-05
5.68524e-08
4.5207e-05
6.25385e-08
4.51927e-05
5.67742e-08
4.51773e-05
5.94546e-08
4.51632e-05
5.0613e-08
4.51502e-05
4.62145e-08
4.51395e-05
3.47926e-08
4.51301e-05
2.84549e-08
4.51234e-05
1.7585e-08
4.51227e-05
6.68516e-09
4.51252e-05
-5.8558e-09
4.514e-05
-2.74876e-08
-6.5303e-08
4.51771e-05
4.88956e-05
2.25518e-08
4.88692e-05
5.085e-08
4.88561e-05
6.96814e-08
4.88458e-05
6.58254e-08
4.88547e-05
6.46818e-08
4.88591e-05
5.73318e-08
4.8875e-05
5.07252e-08
4.88907e-05
4.11964e-08
4.89211e-05
3.21506e-08
4.89569e-05
2.0977e-08
4.90049e-05
1.1366e-08
4.90527e-05
2.88752e-09
4.91055e-05
-6.65672e-09
4.91563e-05
-1.59672e-08
4.92071e-05
-2.23744e-08
4.92519e-05
-2.72129e-08
4.92833e-05
-2.47374e-08
4.93039e-05
-2.64195e-08
4.93034e-05
-2.70065e-08
-2.3422e-08
4.92616e-05
5.28106e-05
1.46366e-08
5.28264e-05
3.51027e-08
5.28397e-05
5.63693e-08
5.28302e-05
7.53449e-08
5.28087e-05
8.6112e-08
5.27787e-05
8.7361e-08
5.27435e-05
8.59155e-08
5.27083e-05
7.64597e-08
5.26755e-05
6.48756e-08
5.26474e-05
4.91333e-08
5.2624e-05
3.47243e-08
5.26065e-05
2.04463e-08
5.25906e-05
9.18451e-09
5.25765e-05
-1.86916e-09
5.25623e-05
-8.1911e-09
5.25568e-05
-2.16345e-08
5.25683e-05
-3.6263e-08
5.2594e-05
-5.20942e-08
5.26356e-05
-6.86756e-08
-8.79817e-08
5.27002e-05
5.70091e-05
2.40631e-08
5.69871e-05
5.71187e-08
5.69704e-05
7.3016e-08
5.69761e-05
6.96975e-08
5.69949e-05
6.72872e-08
5.70232e-05
5.90332e-08
5.70614e-05
4.77843e-08
5.71027e-05
3.51403e-08
5.71431e-05
2.44602e-08
5.71767e-05
1.55615e-08
5.72031e-05
8.33196e-09
5.72218e-05
1.72997e-09
5.72399e-05
-8.90281e-09
5.72569e-05
-1.88659e-08
5.72747e-05
-2.60667e-08
5.72791e-05
-2.59712e-08
5.72715e-05
-2.86818e-08
5.72496e-05
-3.02302e-08
5.72112e-05
-3.0251e-08
-2.85434e-08
5.71518e-05
6.15818e-05
1.32041e-08
6.16028e-05
3.6119e-08
6.16117e-05
6.41208e-08
6.15975e-05
8.38594e-08
6.1568e-05
9.68147e-08
6.15276e-05
9.94544e-08
6.14794e-05
9.59135e-08
6.14298e-05
8.47671e-08
6.13826e-05
7.16251e-08
6.13409e-05
5.73483e-08
6.13041e-05
4.50769e-08
6.12733e-05
3.25001e-08
6.12447e-05
1.97675e-08
6.1221e-05
4.84213e-09
6.12034e-05
-8.52048e-09
6.12044e-05
-2.69753e-08
6.12198e-05
-4.40459e-08
6.12509e-05
-6.13238e-08
6.12989e-05
-7.82535e-08
-9.66243e-08
6.1367e-05
6.64787e-05
2.13536e-08
6.64679e-05
4.69161e-08
6.64751e-05
5.68463e-08
6.64994e-05
5.9632e-08
6.65331e-05
6.30631e-08
6.65691e-05
6.34785e-08
6.66001e-05
6.49393e-08
6.6622e-05
6.28418e-08
6.66345e-05
5.90997e-08
6.66396e-05
5.23024e-08
6.66393e-05
4.53279e-08
6.66354e-05
3.6434e-08
6.66283e-05
2.68581e-08
6.66175e-05
1.56399e-08
6.66035e-05
5.42348e-09
6.65841e-05
-7.58116e-09
6.65577e-05
-1.75728e-08
6.65226e-05
-2.62422e-08
6.64769e-05
-3.25372e-08
-3.61568e-08
6.64164e-05
7.18027e-05
1.38225e-08
7.18309e-05
1.86602e-08
7.18388e-05
4.89926e-08
7.18426e-05
5.58672e-08
7.18266e-05
7.90042e-08
7.18015e-05
8.85837e-08
7.17555e-05
1.10956e-07
7.16976e-05
1.20767e-07
7.16227e-05
1.34001e-07
7.15427e-05
1.32318e-07
7.1459e-05
1.28963e-07
7.13813e-05
1.14146e-07
7.13095e-05
9.86752e-08
7.12545e-05
7.0649e-08
7.12103e-05
4.96255e-08
7.11758e-05
2.69497e-08
7.11507e-05
7.52865e-09
7.1147e-05
-2.25637e-08
7.11708e-05
-5.63203e-08
-9.60926e-08
7.12307e-05
7.75267e-05
7.75567e-05
7.75891e-05
7.76308e-05
7.76603e-05
7.76854e-05
7.76949e-05
7.76967e-05
7.76827e-05
7.76592e-05
7.76216e-05
7.75755e-05
7.75104e-05
7.74318e-05
7.73468e-05
7.72648e-05
7.71902e-05
7.71236e-05
7.70695e-05
7.70125e-05
3.81953e-06
2.78051e-08
3.78477e-06
3.47531e-08
3.74802e-06
3.67559e-08
3.70494e-06
4.30782e-08
3.65606e-06
4.88742e-08
3.60496e-06
5.11063e-08
3.55484e-06
5.01173e-08
3.50715e-06
4.76937e-08
3.46144e-06
4.57109e-08
3.41628e-06
4.51534e-08
3.37046e-06
4.58196e-08
3.32369e-06
4.67696e-08
3.27611e-06
4.75848e-08
3.22783e-06
4.82771e-08
3.17894e-06
4.88913e-08
3.12947e-06
4.9469e-08
3.07944e-06
5.00316e-08
3.02885e-06
5.05913e-08
2.97771e-06
5.1139e-08
2.92605e-06
5.1656e-08
2.87392e-06
5.21324e-08
2.82136e-06
5.25622e-08
2.7684e-06
5.29561e-08
2.71508e-06
5.33196e-08
2.66141e-06
5.367e-08
2.6074e-06
5.4011e-08
2.55305e-06
5.43532e-08
2.49835e-06
5.4697e-08
2.44331e-06
5.5043e-08
2.38791e-06
5.53951e-08
2.33217e-06
5.57392e-08
2.27609e-06
5.60885e-08
2.21967e-06
5.64138e-08
2.16293e-06
5.67431e-08
2.1059e-06
5.7032e-08
2.04858e-06
5.73149e-08
1.99104e-06
5.75396e-08
1.9333e-06
5.77385e-08
1.87544e-06
5.78662e-08
1.8175e-06
5.79371e-08
1.75958e-06
5.79197e-08
1.70177e-06
5.78077e-08
1.64419e-06
5.75782e-08
1.58699e-06
5.72029e-08
1.53033e-06
5.66603e-08
1.47444e-06
5.58923e-08
1.41956e-06
5.48818e-08
1.366e-06
5.35568e-08
1.31405e-06
5.1951e-08
1.2641e-06
4.9946e-08
1.21656e-06
4.75469e-08
1.17182e-06
4.47365e-08
1.13028e-06
4.15451e-08
1.09225e-06
3.80287e-08
1.05813e-06
3.41166e-08
1.028e-06
3.01298e-08
1.00194e-06
2.60645e-08
9.79778e-07
2.21576e-08
9.61223e-07
1.85548e-08
9.45967e-07
1.52558e-08
9.33524e-07
1.24437e-08
9.23433e-07
1.00905e-08
9.15291e-07
8.14236e-09
9.08656e-07
6.63512e-09
9.03197e-07
5.45856e-09
8.98627e-07
4.57054e-09
8.94709e-07
3.91801e-09
8.91141e-07
3.56732e-09
8.87787e-07
3.3542e-09
8.84569e-07
3.21844e-09
8.81359e-07
3.20997e-09
8.78035e-07
3.32332e-09
8.74597e-07
3.43803e-09
8.70975e-07
3.62257e-09
8.67134e-07
3.84066e-09
8.63053e-07
4.08145e-09
8.58792e-07
4.26028e-09
8.54352e-07
4.44072e-09
8.49779e-07
4.57244e-09
8.45105e-07
4.6742e-09
8.40402e-07
4.70272e-09
8.3566e-07
4.74217e-09
8.30912e-07
4.7483e-09
8.26107e-07
4.80511e-09
8.21258e-07
4.84839e-09
8.16324e-07
4.93439e-09
8.11347e-07
4.9772e-09
8.06325e-07
5.02163e-09
8.01345e-07
4.98007e-09
7.96407e-07
4.93783e-09
7.91595e-07
4.81221e-09
7.86861e-07
4.73442e-09
7.82236e-07
4.62455e-09
7.77627e-07
4.60901e-09
7.73039e-07
4.58831e-09
7.68403e-07
4.63616e-09
7.63773e-07
4.63e-09
7.59136e-07
4.63656e-09
7.54611e-07
4.52505e-09
7.50178e-07
4.43328e-09
7.45912e-07
4.26583e-09
7.41708e-07
4.2034e-09
7.37559e-07
4.14938e-09
7.33352e-07
4.20674e-09
7.29136e-07
4.2162e-09
7.24911e-07
4.22555e-09
7.20812e-07
4.09819e-09
7.16812e-07
4.00014e-09
7.13006e-07
3.80666e-09
7.0922e-07
3.7852e-09
7.05485e-07
3.73552e-09
7.01698e-07
3.78651e-09
6.97928e-07
3.7699e-09
6.94179e-07
3.74922e-09
6.90645e-07
3.53467e-09
6.87167e-07
3.47802e-09
6.83834e-07
3.33229e-09
6.80475e-07
3.35936e-09
6.77139e-07
3.33604e-09
6.73813e-07
3.3255e-09
6.70639e-07
3.17403e-09
6.6748e-07
3.15939e-09
6.64499e-07
2.98102e-09
6.61514e-07
2.98443e-09
6.58633e-07
2.8816e-09
6.5577e-07
2.86271e-09
6.52968e-07
2.80186e-09
6.50149e-07
2.81918e-09
6.47609e-07
2.54011e-09
6.45068e-07
2.54074e-09
6.42596e-07
2.47259e-09
6.40083e-07
2.5131e-09
6.37682e-07
2.40074e-09
6.35341e-07
2.34038e-09
6.33317e-07
2.02412e-09
6.31144e-07
2.1734e-09
6.28947e-07
2.19707e-09
6.26815e-07
2.13154e-09
6.24992e-07
1.82353e-09
6.23175e-07
1.81697e-09
6.21493e-07
1.68163e-09
6.19569e-07
1.92428e-09
6.17732e-07
1.83651e-09
6.16139e-07
1.59302e-09
6.14896e-07
1.24334e-09
6.13311e-07
1.58481e-09
6.11754e-07
1.5568e-09
6.10343e-07
1.41099e-09
6.09233e-07
1.11014e-09
6.07879e-07
1.35469e-09
6.06658e-07
1.22093e-09
6.05455e-07
1.20232e-09
6.04487e-07
9.6889e-10
6.03352e-07
1.13409e-09
6.02408e-07
9.44354e-10
6.01377e-07
1.03122e-09
6.00564e-07
8.12656e-10
5.99614e-07
9.50367e-10
5.98878e-07
7.35582e-10
5.97996e-07
8.82128e-10
5.97345e-07
6.50846e-10
5.9655e-07
7.95657e-10
5.95976e-07
5.73747e-10
5.95229e-07
7.46555e-10
5.9473e-07
4.9933e-10
5.94057e-07
6.73283e-10
5.93627e-07
4.29247e-10
5.92993e-07
6.34182e-10
5.92627e-07
3.65819e-10
5.92041e-07
5.86342e-10
5.91734e-07
3.06827e-10
5.91191e-07
5.43059e-10
5.90945e-07
2.46563e-10
5.90434e-07
5.10849e-10
5.90229e-07
2.05148e-10
5.89737e-07
4.91646e-10
5.89581e-07
1.56494e-10
5.89106e-07
4.74475e-10
5.88993e-07
1.13513e-10
5.88524e-07
4.68041e-10
5.88448e-07
7.65553e-11
5.87978e-07
4.70358e-10
5.87926e-07
5.13508e-11
5.87434e-07
4.92079e-10
5.87396e-07
3.7808e-11
5.86858e-07
5.38453e-10
5.86815e-07
4.27277e-11
5.86193e-07
6.22259e-10
5.86107e-07
8.55192e-11
5.85341e-07
7.66155e-10
5.85146e-07
1.95051e-10
5.84126e-07
1.02048e-09
5.83694e-07
4.32169e-10
5.82219e-07
1.47474e-09
5.81245e-07
9.74195e-10
5.78939e-07
2.30592e-09
5.76505e-07
2.43399e-09
5.72645e-07
3.8599e-09
5.66007e-07
6.63728e-09
1.57654e-08
4.1612e-06
2.6601e-08
4.17886e-06
1.70871e-08
4.19006e-06
2.55554e-08
4.19099e-06
4.21537e-08
4.1851e-06
5.47663e-08
4.17817e-06
5.80353e-08
4.17253e-06
5.57538e-08
4.16877e-06
5.14533e-08
4.166e-06
4.84795e-08
4.16311e-06
4.80437e-08
4.15942e-06
4.95101e-08
4.1546e-06
5.15948e-08
4.14872e-06
5.34592e-08
4.14202e-06
5.49816e-08
4.13464e-06
5.62646e-08
4.12666e-06
5.74562e-08
4.11804e-06
5.86507e-08
4.10873e-06
5.99029e-08
4.09868e-06
6.11815e-08
4.08787e-06
6.24689e-08
4.07629e-06
6.37116e-08
4.06394e-06
6.49158e-08
4.05084e-06
6.60581e-08
4.03698e-06
6.71777e-08
4.02238e-06
6.82664e-08
4.00702e-06
6.93698e-08
3.9909e-06
7.04726e-08
3.97399e-06
7.16116e-08
3.95627e-06
7.27615e-08
3.93771e-06
7.39511e-08
3.91831e-06
7.51472e-08
3.89802e-06
7.63732e-08
3.87684e-06
7.75943e-08
3.85475e-06
7.8833e-08
3.83173e-06
8.00534e-08
3.80777e-06
8.12707e-08
3.78287e-06
8.24488e-08
3.75701e-06
8.35958e-08
3.73019e-06
8.46805e-08
3.70243e-06
8.56975e-08
3.67374e-06
8.66164e-08
3.64413e-06
8.74188e-08
3.61363e-06
8.80733e-08
3.5823e-06
8.85337e-08
3.55019e-06
8.87673e-08
3.5174e-06
8.86808e-08
3.48403e-06
8.82539e-08
3.4502e-06
8.73885e-08
3.41609e-06
8.60627e-08
3.38185e-06
8.41889e-08
3.34772e-06
8.16763e-08
3.31386e-06
7.85964e-08
3.28058e-06
7.48172e-08
3.2481e-06
7.05133e-08
3.2166e-06
6.56181e-08
3.18632e-06
6.04113e-08
3.15732e-06
5.50582e-08
3.12978e-06
4.97024e-08
3.10367e-06
4.46662e-08
3.07891e-06
4.0011e-08
3.05548e-06
3.58758e-08
3.03317e-06
3.23992e-08
3.01185e-06
2.94588e-08
2.99138e-06
2.7111e-08
2.97163e-06
2.52065e-08
2.95242e-06
2.37806e-08
2.93371e-06
2.2624e-08
2.91541e-06
2.18735e-08
2.89736e-06
2.1403e-08
2.87953e-06
2.10505e-08
2.86191e-06
2.08233e-08
2.84444e-06
2.07989e-08
2.82703e-06
2.08449e-08
2.80968e-06
2.09691e-08
2.79239e-06
2.1136e-08
2.77507e-06
2.13971e-08
2.75778e-06
2.15499e-08
2.7405e-06
2.17255e-08
2.72327e-06
2.17979e-08
2.70609e-06
2.18538e-08
2.689e-06
2.17946e-08
2.67201e-06
2.17347e-08
2.65513e-06
2.16303e-08
2.63833e-06
2.16078e-08
2.62161e-06
2.15597e-08
2.60494e-06
2.16069e-08
2.58836e-06
2.156e-08
2.57184e-06
2.15445e-08
2.55545e-06
2.13677e-08
2.5392e-06
2.11904e-08
2.52314e-06
2.08638e-08
2.50728e-06
2.06032e-08
2.49161e-06
2.02859e-08
2.47609e-06
2.01357e-08
2.46071e-06
1.99661e-08
2.44541e-06
1.99381e-08
2.43024e-06
1.97982e-08
2.41518e-06
1.96953e-08
2.40034e-06
1.93689e-08
2.38569e-06
1.90773e-08
2.37132e-06
1.86341e-08
2.35715e-06
1.83809e-08
2.34314e-06
1.81527e-08
2.32922e-06
1.81278e-08
2.31544e-06
1.80002e-08
2.30175e-06
1.79145e-08
2.28832e-06
1.75274e-08
2.27513e-06
1.71949e-08
2.26221e-06
1.67217e-08
2.24948e-06
1.65147e-08
2.23694e-06
1.62806e-08
2.22443e-06
1.62961e-08
2.21209e-06
1.61057e-08
2.19993e-06
1.59103e-08
2.18807e-06
1.53958e-08
2.17642e-06
1.51296e-08
2.16504e-06
1.47044e-08
2.15376e-06
1.46458e-08
2.14264e-06
1.44521e-08
2.13167e-06
1.42973e-08
2.12096e-06
1.38889e-08
2.1104e-06
1.37189e-08
2.10016e-06
1.32217e-08
2.09009e-06
1.30542e-08
2.08022e-06
1.27483e-08
2.07044e-06
1.26454e-08
2.06088e-06
1.23579e-08
2.05152e-06
1.2178e-08
2.04254e-06
1.15219e-08
2.03367e-06
1.14108e-08
2.02497e-06
1.11723e-08
2.01638e-06
1.11022e-08
2.00812e-06
1.06586e-08
2.0001e-06
1.03656e-08
1.99238e-06
9.74352e-09
1.98464e-06
9.91311e-09
1.97712e-06
9.71551e-09
1.96988e-06
9.37413e-09
1.96304e-06
8.65688e-09
1.9563e-06
8.55834e-09
1.94976e-06
8.22818e-09
1.94319e-06
8.48746e-09
1.93696e-06
8.06764e-09
1.93108e-06
7.47283e-09
1.92557e-06
6.75436e-09
1.91995e-06
7.21004e-09
1.91455e-06
6.94871e-09
1.90941e-06
6.55924e-09
1.90461e-06
5.91008e-09
1.89976e-06
6.20271e-09
1.89519e-06
5.78763e-09
1.89077e-06
5.62459e-09
1.88667e-06
5.06622e-09
1.88257e-06
5.23332e-09
1.87877e-06
4.74757e-09
1.87501e-06
4.78694e-09
1.87157e-06
4.25513e-09
1.86812e-06
4.4019e-09
1.86498e-06
3.87518e-09
1.86181e-06
4.05043e-09
1.85897e-06
3.48749e-09
1.85609e-06
3.68524e-09
1.85353e-06
3.13141e-09
1.85088e-06
3.39185e-09
1.84859e-06
2.78656e-09
1.8462e-06
3.07181e-09
1.84416e-06
2.46605e-09
1.84196e-06
2.83002e-09
1.84016e-06
2.16629e-09
1.83816e-06
2.58527e-09
1.83659e-06
1.87795e-09
1.83478e-06
2.36034e-09
1.83342e-06
1.60423e-09
1.83175e-06
2.17645e-09
1.83058e-06
1.38077e-09
1.82904e-06
2.03058e-09
1.82804e-06
1.15072e-09
1.82662e-06
1.9027e-09
1.82579e-06
9.37912e-10
1.82445e-06
1.80797e-09
1.82378e-06
7.44946e-10
1.82251e-06
1.74558e-09
1.82198e-06
5.83344e-10
1.82073e-06
1.73812e-09
1.82031e-06
4.53992e-10
1.81905e-06
1.79921e-09
1.81872e-06
3.73385e-10
1.81738e-06
1.96105e-09
1.81709e-06
3.83033e-10
1.81557e-06
2.28013e-09
1.81522e-06
5.48738e-10
1.81336e-06
2.87488e-09
1.81279e-06
1.00563e-09
1.8103e-06
3.96234e-09
1.80916e-06
2.11398e-09
1.8054e-06
6.06509e-09
1.80294e-06
4.89786e-09
1.79594e-06
1.08602e-08
1.79025e-06
1.23256e-08
3.44036e-08
4.49485e-06
1.03677e-08
4.51104e-06
8.93587e-10
4.52119e-06
1.54046e-08
4.51811e-06
4.52408e-08
4.51528e-06
5.75895e-08
4.51418e-06
5.91377e-08
4.51509e-06
5.48428e-08
4.51664e-06
4.99093e-08
4.51777e-06
4.7351e-08
4.51868e-06
4.71306e-08
4.51969e-06
4.85028e-08
4.52069e-06
5.05918e-08
4.52148e-06
5.26668e-08
4.52202e-06
5.44455e-08
4.52237e-06
5.59161e-08
4.52258e-06
5.72418e-08
4.52269e-06
5.85384e-08
4.52268e-06
5.99114e-08
4.52254e-06
6.13286e-08
4.52221e-06
6.27916e-08
4.52171e-06
6.42171e-08
4.521e-06
6.56218e-08
4.52011e-06
6.69513e-08
4.51902e-06
6.82666e-08
4.51775e-06