/*--------------------------------*- C++ -*----------------------------------*\
| =========                 |                                                 |
| \\      /  F ield         | OpenFOAM: The Open Source CFD Toolbox           |
|  \\    /   O peration     | Version:  v2012                                 |
|   \\  /    A nd           | Website:  www.openfoam.com                      |
|    \\/     M anipulation  |                                                 |
\*---------------------------------------------------------------------------*/
FoamFile
{
    version     2.0;
    format      ascii;
    class       volVectorField;
    location    "0.9";
    object      U;
}
// * * * * * * * * * * * * * * * * * * * * * * * * * * * * * * * * * * * * * //

dimensions      [0 1 -1 0 0 0 0];


internalField   nonuniform List<vector> 
8800
(
(0.964791 -0.00132621 0)
(1.03452 0.00114276 0)
(0.968333 -0.00107306 0)
(1.03149 0.000978347 0)
(0.97248 -0.000910595 0)
(1.02889 0.000802453 0)
(0.976364 -0.000764616 0)
(1.02646 0.00066992 0)
(0.979931 -0.000637076 0)
(1.02421 0.000565833 0)
(0.983197 -0.000540151 0)
(1.02213 0.000518474 0)
(0.98621 -0.000398872 0)
(1.02035 0.000401614 0)
(0.989108 -0.00027382 0)
(1.01902 0.00028045 0)
(0.992037 -0.000152201 0)
(1.01828 0.000202462 0)
(0.995315 0.000316624 0)
(1.01929 0.000846188 0)
(0.986806 -0.00123507 0)
(1.01133 0.000901401 0)
(0.990066 -0.000857626 0)
(1.00909 0.00070583 0)
(0.993383 -0.000638808 0)
(1.0075 0.000452627 0)
(0.996063 -0.000440974 0)
(1.00629 0.000291119 0)
(0.998191 -0.000303433 0)
(1.00544 0.00021493 0)
(0.999913 -0.000218314 0)
(1.00486 0.000217749 0)
(1.00134 -9.49138e-05 0)
(1.00464 0.000117238 0)
(1.00265 -3.46708e-06 0)
(1.00485 2.36122e-05 0)
(1.00404 0.000210683 0)
(1.00565 0.000374635 0)
(1.00604 0.001022 0)
(1.00833 0.000879778 0)
(0.997435 -0.0011926 0)
(1.00135 0.000809323 0)
(0.997918 -0.000788217 0)
(1.00079 0.0006456 0)
(0.998943 -0.000620865 0)
(1.00076 0.000410266 0)
(0.999802 -0.000499904 0)
(1.00092 0.000352266 0)
(1.0005 -0.00050193 0)
(1.00121 0.000498332 0)
(1.00112 -0.000520325 0)
(1.00156 0.000620196 0)
(1.0017 -0.000489568 0)
(1.00207 0.000583345 0)
(1.00239 -0.000499376 0)
(1.00285 0.000522596 0)
(1.00343 -0.000384662 0)
(1.0041 0.00168872 0)
(1.00501 0.00187683 0)
(1.00681 0.00498196 0)
(0.999734 -0.00115534 0)
(0.999474 0.00071526 0)
(0.999219 -0.000669767 0)
(0.99942 0.00053759 0)
(0.999575 -0.000483137 0)
(0.99973 0.000237866 0)
(1.00001 -0.000296481 0)
(1.00011 9.04751e-05 0)
(1.00045 -0.000220923 0)
(1.00054 0.000111445 0)
(1.00089 -0.000126473 0)
(1.00097 0.000139118 0)
(1.00135 -4.18715e-05 0)
(1.00152 0.000174095 0)
(1.00198 1.16977e-05 0)
(1.00232 0.000134972 0)
(1.00314 -3.9319e-06 0)
(1.00396 0.000167004 0)
(1.0053 0.000226314 0)
(1.00626 0.00108065 0)
(1.00002 -0.000969666 0)
(0.999296 0.000443813 0)
(0.999356 -0.000404136 0)
(0.999307 0.000269281 0)
(0.999617 -0.00022268 0)
(0.999656 -4.9917e-05 0)
(0.999998 -1.8626e-05 0)
(1.00004 -0.000249315 0)
(1.00041 0.000156634 0)
(1.00049 -0.000317065 0)
(1.00082 0.00032533 0)
(1.00091 -0.000357256 0)
(1.00128 0.000439557 0)
(1.00145 -0.000278346 0)
(1.00191 0.000524827 0)
(1.00225 -0.000331686 0)
(1.00291 0.000411265 0)
(1.00353 -0.00112354 0)
(1.00463 -0.000563842 0)
(1.00671 -0.00167064 0)
(1.00006 -0.00107582 0)
(0.999298 0.000531852 0)
(0.999388 -0.000481601 0)
(0.999302 0.000404895 0)
(0.999637 -0.000380001 0)
(0.999652 0.000170819 0)
(1.00002 -0.000358342 0)
(1.00004 0.000121796 0)
(1.00044 -0.000286985 0)
(1.00048 0.000205147 0)
(1.00085 -0.000212148 0)
(1.00091 0.000285781 0)
(1.00131 -0.000102177 0)
(1.00145 0.000362358 0)
(1.00191 -9.18654e-05 0)
(1.00222 0.000300651 0)
(1.00291 -0.000208526 0)
(1.00369 0.000298167 0)
(1.00515 0.00043493 0)
(1.00762 0.00249578 0)
(1.00005 -0.00077176 0)
(0.999342 0.000113698 0)
(0.999394 -4.8071e-05 0)
(0.99933 -2.76998e-05 0)
(0.999637 6.17661e-05 0)
(0.999674 -0.000185722 0)
(1.00003 -4.17049e-06 0)
(1.00006 -0.000246495 0)
(1.00045 3.96398e-05 0)
(1.00051 -0.000168479 0)
(1.00087 0.000125888 0)
(1.00093 -3.80057e-05 0)
(1.00133 0.000257532 0)
(1.00146 5.50409e-05 0)
(1.00194 0.000225622 0)
(1.00223 8.26582e-05 0)
(1.00295 0.00019754 0)
(1.00369 0.00021824 0)
(1.00524 0.000353324 0)
(1.00783 0.00109138 0)
(1.00005 -0.000902678 0)
(0.999394 0.000207118 0)
(0.999408 -0.000268844 0)
(0.99936 0.000272031 0)
(0.99965 -0.00029837 0)
(0.999695 0.000242865 0)
(1.00004 -0.000340986 0)
(1.00009 6.64536e-05 0)
(1.00047 -0.000150422 0)
(1.00054 9.4404e-05 0)
(1.0009 -0.000109904 0)
(1.00097 0.00021783 0)
(1.00135 6.06548e-05 0)
(1.00149 0.000268357 0)
(1.00195 0.000102395 0)
(1.00226 0.000263438 0)
(1.00298 0.000183247 0)
(1.00378 0.000444216 0)
(1.00545 0.000758555 0)
(1.00824 0.00167527 0)
(1.00004 -0.000650451 0)
(0.999438 -0.000121005 0)
(0.999441 -4.32176e-05 0)
(0.999377 5.89319e-05 0)
(0.999675 -1.50331e-05 0)
(0.999719 1.69423e-05 0)
(1.00005 -0.000191592 0)
(1.00013 -7.89215e-05 0)
(1.00049 -5.15249e-05 0)
(1.00056 8.04207e-06 0)
(1.00093 4.41888e-05 0)
(1.00101 0.000158769 0)
(1.00138 0.000137452 0)
(1.00151 0.000231526 0)
(1.00198 0.000181181 0)
(1.0023 0.000300611 0)
(1.00304 0.000327641 0)
(1.0039 0.000633182 0)
(1.00567 0.00100059 0)
(1.0086 0.00180499 0)
(1.00004 -0.00068982 0)
(0.999499 -0.000128626 0)
(0.999473 -7.69288e-05 0)
(0.999422 6.23752e-05 0)
(0.999695 0.000148708 0)
(0.999732 -0.000135413 0)
(1.00008 -6.82214e-05 0)
(1.00017 -1.08901e-05 0)
(1.00054 -0.000154184 0)
(1.00062 8.56002e-05 0)
(1.00097 0.000100143 0)
(1.00105 0.000218557 0)
(1.00141 0.00016537 0)
(1.00155 0.000257077 0)
(1.00202 0.000245601 0)
(1.00235 0.000368078 0)
(1.00313 0.000460822 0)
(1.00404 0.000763011 0)
(1.00589 0.00115822 0)
(1.00893 0.00183688 0)
(1.00004 -0.000546364 0)
(0.999552 -0.000293546 0)
(0.99952 -0.00011934 0)
(0.999464 0.000128994 0)
(0.999712 5.26396e-05 0)
(0.999759 -3.45143e-05 0)
(1.00013 -1.14442e-05 0)
(1.00018 -1.24969e-05 0)
(1.00057 -8.98411e-05 0)
(1.00067 7.25669e-05 0)
(1.00102 0.000103464 0)
(1.00108 0.000204883 0)
(1.00145 0.000177162 0)
(1.00159 0.00026658 0)
(1.00207 0.000288375 0)
(1.00242 0.000423001 0)
(1.00323 0.000556011 0)
(1.0042 0.000859246 0)
(1.00611 0.00124707 0)
(1.00923 0.00183264 0)
(1.00004 -0.000512728 0)
(0.999608 -0.000375155 0)
(0.999585 -0.000170172 0)
(0.999509 0.000203073 0)
(0.999744 -8.31945e-07 0)
(0.999794 0.000230237 0)
(1.00015 -9.16774e-05 0)
(1.00022 -4.98731e-05 0)
(1.00062 -1.33431e-05 0)
(1.00072 0.000106904 0)
(1.00107 0.000117671 0)
(1.00113 0.000218654 0)
(1.0015 0.000216739 0)
(1.00165 0.000306353 0)
(1.00213 0.000349806 0)
(1.0025 0.000498271 0)
(1.00334 0.000651098 0)
(1.00436 0.000953082 0)
(1.00634 0.00131392 0)
(1.00951 0.00183063 0)
(1.00004 -0.000408807 0)
(0.999667 -0.000484701 0)
(0.999663 -0.000163521 0)
(0.999561 9.31585e-05 0)
(0.999797 0.000106657 0)
(0.999822 0.000244015 0)
(1.00016 -2.60864e-05 0)
(1.00028 -6.55896e-06 0)
(1.00068 4.98185e-05 0)
(1.00077 0.00013952 0)
(1.00112 0.000143975 0)
(1.00118 0.000231283 0)
(1.00155 0.000251389 0)
(1.00171 0.000338009 0)
(1.0022 0.000402516 0)
(1.0026 0.000554164 0)
(1.00347 0.000722814 0)
(1.00453 0.00100969 0)
(1.00656 0.00134591 0)
(1.00979 0.00179491 0)
(1.00004 -0.00038438 0)
(0.999724 -0.000434862 0)
(0.999739 -0.000289783 0)
(0.999629 2.73675e-05 0)
(0.999852 0.000152313 0)
(0.999858 0.000215977 0)
(1.00019 0.000137662 0)
(1.00032 8.11562e-05 0)
(1.00073 6.07447e-05 0)
(1.00082 0.000140873 0)
(1.00117 0.000170901 0)
(1.00124 0.000246573 0)
(1.00161 0.000285035 0)
(1.00178 0.000366818 0)
(1.00228 0.000449638 0)
(1.0027 0.000598688 0)
(1.0036 0.000778806 0)
(1.0047 0.00104526 0)
(1.00678 0.00135888 0)
(1.01005 0.00174527 0)
(1.00004 -0.000333489 0)
(0.999764 -0.000382206 0)
(0.999807 -0.00038292 0)
(0.999706 -5.79097e-05 0)
(0.999911 0.000136272 0)
(0.999905 0.000247167 0)
(1.00022 0.000281303 0)
(1.00035 0.000188678 0)
(1.00078 9.0735e-05 0)
(1.00088 0.000148315 0)
(1.00123 0.00019096 0)
(1.0013 0.000274825 0)
(1.00167 0.000317484 0)
(1.00184 0.000409455 0)
(1.00237 0.000495144 0)
(1.0028 0.000650728 0)
(1.00373 0.000823653 0)
(1.00487 0.00107806 0)
(1.00698 0.0013579 0)
(1.01029 0.00170123 0)
(1.00004 -0.000277637 0)
(0.9998 -0.000387396 0)
(0.999866 -0.000364149 0)
(0.999786 -0.00016567 0)
(0.999982 7.02792e-05 0)
(0.999964 0.000238616 0)
(1.00026 0.00035223 0)
(1.00036 0.000341002 0)
(1.0008 0.000209063 0)
(1.00093 0.000187039 0)
(1.00129 0.000204739 0)
(1.00136 0.000284766 0)
(1.00173 0.000340376 0)
(1.00192 0.000435401 0)
(1.00246 0.000528938 0)
(1.00291 0.000681596 0)
(1.00387 0.000849619 0)
(1.00504 0.00108317 0)
(1.00718 0.00133533 0)
(1.01052 0.00163632 0)
(1.00004 -0.000223251 0)
(0.999836 -0.000388401 0)
(0.999922 -0.000327472 0)
(0.999856 -0.000203409 0)
(1.00006 -2.02652e-05 0)
(1.00004 0.000191431 0)
(1.00033 0.000335273 0)
(1.00039 0.000447043 0)
(1.00082 0.000367334 0)
(1.00096 0.000281949 0)
(1.00134 0.000240214 0)
(1.00142 0.000294085 0)
(1.0018 0.000354791 0)
(1.00199 0.000452968 0)
(1.00255 0.000553145 0)
(1.00302 0.00070157 0)
(1.004 0.000863349 0)
(1.0052 0.00107477 0)
(1.00737 0.00130002 0)
(1.01074 0.00156151 0)
(1.00004 -0.000194179 0)
(0.999868 -0.000334273 0)
(0.999977 -0.000313689 0)
(0.99992 -0.000186632 0)
(1.00014 -5.67819e-05 0)
(1.00012 0.000155813 0)
(1.0004 0.000300574 0)
(1.00045 0.000444893 0)
(1.00084 0.000453879 0)
(1.00097 0.000388431 0)
(1.00137 0.00031197 0)
(1.00147 0.000326162 0)
(1.00187 0.000371157 0)
(1.00207 0.000466812 0)
(1.00264 0.000567375 0)
(1.00314 0.000710831 0)
(1.00414 0.00086177 0)
(1.00536 0.00105278 0)
(1.00756 0.00124897 0)
(1.01094 0.00147549 0)
(1.00004 -0.000161466 0)
(0.999894 -0.000268956 0)
(1.00002 -0.000284437 0)
(0.99998 -0.000170673 0)
(1.00021 -4.25126e-05 0)
(1.00019 0.000145828 0)
(1.00047 0.000288833 0)
(1.00051 0.000411075 0)
(1.00088 0.00045914 0)
(1.00099 0.000449915 0)
(1.00139 0.000388976 0)
(1.00151 0.000376492 0)
(1.00193 0.00039928 0)
(1.00215 0.0004782 0)
(1.00274 0.000572452 0)
(1.00325 0.000704801 0)
(1.00427 0.000843265 0)
(1.00551 0.00101175 0)
(1.00772 0.00118163 0)
(1.01113 0.00137388 0)
(1.00004 -0.00012975 0)
(0.999915 -0.000215831 0)
(1.00006 -0.000239421 0)
(1.00003 -0.000145318 0)
(1.00027 -1.96471e-05 0)
(1.00026 0.000148177 0)
(1.00053 0.000282125 0)
(1.00056 0.000393247 0)
(1.00092 0.00044469 0)
(1.00101 0.000466273 0)
(1.00141 0.000434994 0)
(1.00154 0.00042317 0)
(1.00198 0.000429934 0)
(1.00222 0.000490596 0)
(1.00282 0.00056942 0)
(1.00335 0.000686382 0)
(1.00439 0.000807575 0)
(1.00564 0.000953945 0)
(1.00788 0.00109787 0)
(1.0113 0.00125912 0)
(1.00004 -9.94617e-05 0)
(0.999933 -0.000173411 0)
(1.0001 -0.000184942 0)
(1.00008 -0.000104326 0)
(1.00033 7.92808e-06 0)
(1.00032 0.000159842 0)
(1.00059 0.000282068 0)
(1.00061 0.000387535 0)
(1.00096 0.000438301 0)
(1.00104 0.000467819 0)
(1.00143 0.000456976 0)
(1.00157 0.000453947 0)
(1.00202 0.000456892 0)
(1.00228 0.000501307 0)
(1.0029 0.00056323 0)
(1.00344 0.000659741 0)
(1.0045 0.000761376 0)
(1.00577 0.000884092 0)
(1.00801 0.00100307 0)
(1.01144 0.00113619 0)
(1.00004 -7.26544e-05 0)
(0.999948 -0.0001273 0)
(1.00013 -0.000125837 0)
(1.00013 -5.72111e-05 0)
(1.00039 4.04801e-05 0)
(1.00038 0.000174558 0)
(1.00065 0.00028571 0)
(1.00066 0.000383962 0)
(1.00099 0.000434415 0)
(1.00107 0.000466567 0)
(1.00145 0.000463946 0)
(1.00159 0.000468278 0)
(1.00205 0.000468895 0)
(1.00232 0.000502054 0)
(1.00296 0.00054523 0)
(1.00352 0.00062122 0)
(1.00459 0.000699569 0)
(1.00587 0.000798698 0)
(1.00813 0.000891276 0)
(1.01157 0.000998647 0)
(1.00004 -5.12722e-05 0)
(0.999961 -7.62452e-05 0)
(1.00015 -6.71109e-05 0)
(1.00017 -5.20807e-06 0)
(1.00043 8.16086e-05 0)
(1.00044 0.000197877 0)
(1.0007 0.000298481 0)
(1.0007 0.00038675 0)
(1.00103 0.000436963 0)
(1.00109 0.000468165 0)
(1.00147 0.000469552 0)
(1.00161 0.000472987 0)
(1.00208 0.000470972 0)
(1.00236 0.00049044 0)
(1.00301 0.000516442 0)
(1.00359 0.000568153 0)
(1.00467 0.000623362 0)
(1.00596 0.000695686 0)
(1.00823 0.000763025 0)
(1.01168 0.000841498 0)
(1.00004 -2.69834e-05 0)
(0.999971 -3.35093e-05 0)
(1.00017 -1.032e-05 0)
(1.0002 5.15457e-05 0)
(1.00047 0.000131236 0)
(1.00048 0.000231406 0)
(1.00074 0.000319528 0)
(1.00074 0.000397025 0)
(1.00105 0.000443348 0)
(1.0011 0.000473186 0)
(1.00148 0.000474523 0)
(1.00161 0.00047446 0)
(1.00209 0.000464207 0)
(1.00238 0.000468785 0)
(1.00304 0.000474231 0)
(1.00363 0.000501123 0)
(1.00472 0.000529843 0)
(1.00602 0.000575358 0)
(1.0083 0.000616606 0)
(1.01175 0.000668181 0)
(1.00004 -6.43988e-06 0)
(0.999979 1.13228e-05 0)
(1.00019 4.8895e-05 0)
(1.00022 0.000112452 0)
(1.00051 0.000185596 0)
(1.00051 0.00027232 0)
(1.00077 0.000347493 0)
(1.00076 0.00041464 0)
(1.00107 0.000454563 0)
(1.00111 0.000481171 0)
(1.00148 0.000480519 0)
(1.00161 0.000475525 0)
(1.00208 0.000455114 0)
(1.00238 0.000441467 0)
(1.00305 0.000422694 0)
(1.00364 0.00041974 0)
(1.00474 0.000419019 0)
(1.00605 0.000435977 0)
(1.00833 0.00045285 0)
(1.0118 0.000481659 0)
(1.00004 1.29253e-05 0)
(0.999984 5.83947e-05 0)
(1.0002 0.000111905 0)
(1.00024 0.000174584 0)
(1.00053 0.000243059 0)
(1.00054 0.000318383 0)
(1.0008 0.000384561 0)
(1.00078 0.000441519 0)
(1.00108 0.000474955 0)
(1.00111 0.000493558 0)
(1.00147 0.000487935 0)
(1.00159 0.000475069 0)
(1.00206 0.000446524 0)
(1.00235 0.00041522 0)
(1.00302 0.000369117 0)
(1.00362 0.000323787 0)
(1.00473 0.000272086 0)
(1.00605 0.00023116 0)
(1.00834 0.000193333 0)
(1.01182 0.00017226 0)
(1.00004 3.37792e-05 0)
(0.999988 0.000102814 0)
(1.0002 0.000174494 0)
(1.00024 0.000236605 0)
(1.00054 0.0003025 0)
(1.00055 0.00036756 0)
(1.00081 0.000429499 0)
(1.00079 0.000478713 0)
(1.00108 0.000508944 0)
(1.0011 0.000516569 0)
(1.00145 0.000499631 0)
(1.00156 0.000468893 0)
(1.00202 0.000428417 0)
(1.00229 0.000390694 0)
(1.00295 0.000351103 0)
(1.00353 0.000315648 0)
(1.00462 0.000274755 0)
(1.00594 0.000234335 0)
(1.00824 0.000187063 0)
(1.01173 0.00014476 0)
(1.00004 5.40938e-05 0)
(0.999988 0.000152976 0)
(1.0002 0.000238724 0)
(1.00024 0.000304305 0)
(1.00054 0.000365192 0)
(1.00055 0.000421598 0)
(1.00081 0.000476602 0)
(1.00078 0.000523654 0)
(1.00106 0.000556267 0)
(1.00107 0.000566326 0)
(1.0014 0.000541657 0)
(1.0015 0.000480666 0)
(1.00196 0.000382548 0)
(1.00224 0.000261851 0)
(1.00291 0.000124777 0)
(1.0035 -1.1503e-05 0)
(1.0046 -0.00014358 0)
(1.00591 -0.000258732 0)
(1.00819 -0.000363508 0)
(1.01166 -0.000453983 0)
(1.00004 7.19058e-05 0)
(0.999984 0.000204878 0)
(1.00019 0.000310182 0)
(1.00023 0.000384075 0)
(1.00052 0.000441316 0)
(1.00054 0.000487426 0)
(1.0008 0.000525706 0)
(1.00077 0.000556589 0)
(1.00104 0.000579395 0)
(1.00102 0.000596066 0)
(1.00132 0.000600309 0)
(1.00137 0.000590893 0)
(1.00176 0.000558135 0)
(1.00198 0.000503586 0)
(1.00259 0.000419369 0)
(1.00315 0.000312322 0)
(1.00425 0.000178981 0)
(1.00558 3.36591e-05 0)
(1.00789 -0.000114829 0)
(1.01139 -0.000253227 0)
(1.00004 9.77716e-05 0)
(0.99998 0.00023076 0)
(1.00018 0.000373085 0)
(1.0002 0.000455574 0)
(1.00049 0.000551466 0)
(1.0005 0.000606722 0)
(1.00075 0.000671518 0)
(1.00072 0.000685162 0)
(1.00099 0.00067983 0)
(1.00099 0.000613204 0)
(1.0013 0.000519956 0)
(1.00138 0.000374023 0)
(1.00179 0.000207123 0)
(1.00202 1.76156e-06 0)
(1.00262 -0.000214292 0)
(1.00314 -0.000452601 0)
(1.00416 -0.000688229 0)
(1.00541 -0.000928303 0)
(1.00766 -0.00115068 0)
(1.01113 -0.0013475 0)
(1.00004 0.000140336 0)
(0.999972 0.000281457 0)
(1.00017 0.000435069 0)
(1.00019 0.000458076 0)
(1.00048 0.000552796 0)
(1.00048 0.000581266 0)
(1.00072 0.000695692 0)
(1.00065 0.000764902 0)
(1.00086 0.000891835 0)
(1.00077 0.000962863 0)
(1.00099 0.00105314 0)
(1.00094 0.00106575 0)
(1.00125 0.00106105 0)
(1.00138 0.000963196 0)
(1.00191 0.000827362 0)
(1.0024 0.00059625 0)
(1.00344 0.000318347 0)
(1.00474 -5.24298e-05 0)
(1.00707 -0.00047751 0)
(1.01066 -0.00098298 0)
(1.00004 0.000136066 0)
(0.999938 0.000322863 0)
(1.00009 0.000604414 0)
(1.0001 0.000714355 0)
(1.00039 0.000847782 0)
(1.00042 0.000815753 0)
(1.00071 0.000809354 0)
(1.0007 0.000689713 0)
(1.00099 0.000619942 0)
(1.00098 0.000465865 0)
(1.00125 0.000349081 0)
(1.00125 0.000147949 0)
(1.00155 -3.2581e-05 0)
(1.00162 -0.000290258 0)
(1.00202 -0.000531646 0)
(1.00229 -0.000836334 0)
(1.00303 -0.001122 0)
(1.00393 -0.00144646 0)
(1.00581 -0.00171986 0)
(1.00893 -0.00197851 0)
(1.00004 0.000253871 0)
(1 6.16392e-05 0)
(1.00017 0.000585143 0)
(1.00014 0.000484589 0)
(1.00034 0.000917335 0)
(1.00027 0.000816513 0)
(1.00043 0.00121953 0)
(1.0003 0.00122027 0)
(1.00046 0.00168225 0)
(1.00031 0.0017827 0)
(1.00044 0.00220622 0)
(1.0003 0.00221328 0)
(1.00049 0.00239232 0)
(1.00051 0.00220613 0)
(1.00092 0.00221486 0)
(1.0013 0.00194104 0)
(1.00225 0.00176059 0)
(1.00352 0.00111045 0)
(1.00592 9.52177e-05 0)
(1.00976 -0.00205457 0)
(1.00004 0.000192467 0)
(0.999977 0.00057509 0)
(1.00016 0.000882907 0)
(1.00017 0.00099679 0)
(1.00045 0.000988373 0)
(1.00052 0.000829338 0)
(1.00089 0.000636576 0)
(1.001 0.000415594 0)
(1.0014 0.000238979 0)
(1.00143 5.54629e-05 0)
(1.00163 -0.000111685 0)
(1.00141 -0.000307513 0)
(1.00145 -0.000500172 0)
(1.00132 -0.000705797 0)
(1.00153 -0.000892548 0)
(1.00146 -0.00107496 0)
(1.00138 -0.00123332 0)
(1.00047 -0.00138095 0)
(0.998699 -0.00150865 0)
(0.994765 -0.00165505 0)
(1.00004 0.000173001 0)
(0.999987 0.000381107 0)
(1.00003 0.000645243 0)
(0.999813 0.000830918 0)
(0.999821 0.00108703 0)
(0.999586 0.00127401 0)
(0.999655 0.00147176 0)
(0.999499 0.00152672 0)
(0.999641 0.00148134 0)
(0.999459 0.00124996 0)
(0.999532 0.000965688 0)
(0.999333 0.000639921 0)
(0.999475 0.000385347 0)
(0.999463 0.000107587 0)
(0.999876 -0.000190003 0)
(1.00029 -0.000609985 0)
(1.00134 -0.00111696 0)
(1.0028 -0.00174053 0)
(1.00548 -0.00238081 0)
(1.00966 -0.00299898 0)
(1.00004 0.000202625 0)
(0.999953 0.000529911 0)
(1.00015 0.000804377 0)
(1.00021 0.000928527 0)
(1.00054 0.000979677 0)
(1.00062 0.000914267 0)
(1.00091 0.00080777 0)
(1.00082 0.000629455 0)
(1.00092 0.000471499 0)
(1.00068 0.000305067 0)
(1.00071 0.000169625 0)
(1.00047 1.19473e-05 0)
(1.00051 -0.000145098 0)
(1.00022 -0.000341815 0)
(1.00007 -0.000547177 0)
(0.999449 -0.000783136 0)
(0.99868 -0.00101843 0)
(0.997069 -0.00127875 0)
(0.994688 -0.00156292 0)
(0.99043 -0.0019192 0)
(1.00004 0.000171832 0)
(0.999936 0.000542453 0)
(0.999851 0.000851424 0)
(0.999474 0.00111207 0)
(0.999307 0.00128192 0)
(0.998907 0.00133865 0)
(0.99883 0.00124951 0)
(0.998594 0.0010761 0)
(0.998719 0.000863752 0)
(0.99854 0.000663818 0)
(0.998592 0.000444863 0)
(0.998329 0.000195976 0)
(0.998369 -0.000121624 0)
(0.998243 -0.000500082 0)
(0.998559 -0.000949823 0)
(0.998919 -0.00144132 0)
(0.999967 -0.00196035 0)
(1.00145 -0.00245387 0)
(1.00415 -0.00289022 0)
(1.00828 -0.00320868 0)
(1.00004 0.000170775 0)
(0.999962 0.0003699 0)
(1.00015 0.000621571 0)
(1.00016 0.0007778 0)
(1.00038 0.00101069 0)
(1.00026 0.00116962 0)
(1.00034 0.00135565 0)
(1.0001 0.0014086 0)
(1.00014 0.001412 0)
(0.999829 0.0013055 0)
(0.999739 0.00122909 0)
(0.999283 0.00109814 0)
(0.999007 0.000960958 0)
(0.998346 0.00071306 0)
(0.997784 0.000407066 0)
(0.996755 -1.62685e-05 0)
(0.995637 -0.000496747 0)
(0.993777 -0.00108835 0)
(0.991281 -0.00174494 0)
(0.987059 -0.00251255 0)
(1.00004 0.000170928 0)
(0.999896 0.000538445 0)
(0.999781 0.000821128 0)
(0.999391 0.00100017 0)
(0.999221 0.0010989 0)
(0.998788 0.00118386 0)
(0.998602 0.00128087 0)
(0.998165 0.00138271 0)
(0.998081 0.00144647 0)
(0.99779 0.00144489 0)
(0.997783 0.00134807 0)
(0.997401 0.00114494 0)
(0.997191 0.000822189 0)
(0.996691 0.000384168 0)
(0.996567 -0.000165759 0)
(0.996461 -0.000804771 0)
(0.997024 -0.00150453 0)
(0.998007 -0.00221767 0)
(1.00024 -0.00289295 0)
(1.004 -0.00346659 0)
(1.00004 0.000152299 0)
(0.999957 -0.000110147 0)
(1.00005 0.000227558 0)
(0.999953 0.000226401 0)
(1.00013 0.000803229 0)
(1.00006 0.0011196 0)
(1.0002 0.00191035 0)
(0.999962 0.00242212 0)
(0.999872 0.00322861 0)
(0.999316 0.00365359 0)
(0.998856 0.0041759 0)
(0.997921 0.0042844 0)
(0.99707 0.00444604 0)
(0.995748 0.00423913 0)
(0.994467 0.00402566 0)
(0.99271 0.00339807 0)
(0.990929 0.00262488 0)
(0.988555 0.00132205 0)
(0.985767 -0.000346957 0)
(0.981535 -0.00284317 0)
(1.00437 0.00202465 0)
(0.991941 0.00273696 0)
(0.97749 0.00314664 0)
(0.963024 0.00342722 0)
(0.949045 0.00358819 0)
(0.93559 0.00358415 0)
(0.922605 0.00343421 0)
(0.910045 0.00322641 0)
(0.89787 0.00304917 0)
(0.886003 0.00294725 0)
(0.874309 0.00290559 0)
(0.862626 0.00289135 0)
(0.85082 0.00288145 0)
(0.8388 0.00286627 0)
(0.826524 0.00284627 0)
(0.81398 0.00282544 0)
(0.801192 0.00280741 0)
(0.788184 0.00279222 0)
(0.775003 0.0027795 0)
(0.761666 0.00276594 0)
(0.748218 0.00275144 0)
(0.734654 0.00273325 0)
(0.721015 0.00271349 0)
(0.707273 0.00269032 0)
(0.693471 0.00266689 0)
(0.679563 0.00264157 0)
(0.665599 0.00261677 0)
(0.65152 0.00259132 0)
(0.637387 0.00256593 0)
(0.62313 0.00254108 0)
(0.608817 0.00251479 0)
(0.59438 0.0024901 0)
(0.579888 0.00246205 0)
(0.565281 0.00243654 0)
(0.550617 0.00240623 0)
(0.535859 0.00237815 0)
(0.521047 0.00234462 0)
(0.506173 0.00231165 0)
(0.491256 0.00227406 0)
(0.476317 0.00223431 0)
(0.461361 0.00219068 0)
(0.446431 0.00214247 0)
(0.431529 0.00208974 0)
(0.416719 0.00202991 0)
(0.402007 0.00196422 0)
(0.387477 0.00188624 0)
(0.373156 0.00180332 0)
(0.359141 0.00169992 0)
(0.345507 0.0015874 0)
(0.332309 0.00144874 0)
(0.319731 0.00129272 0)
(0.307754 0.00111693 0)
(0.296652 0.000918739 0)
(0.286325 0.000712294 0)
(0.27706 0.000494584 0)
(0.268773 0.000299137 0)
(0.261559 0.000115956 0)
(0.255401 -3.78662e-05 0)
(0.250184 -0.000160121 0)
(0.245867 -0.000261594 0)
(0.242353 -0.000329845 0)
(0.239441 -0.000377056 0)
(0.23714 -0.000406824 0)
(0.235217 -0.000419407 0)
(0.233698 -0.000420176 0)
(0.232369 -0.000406666 0)
(0.231321 -0.000391222 0)
(0.23033 -0.000367744 0)
(0.229457 -0.000342052 0)
(0.228583 -0.000318619 0)
(0.227797 -0.000290686 0)
(0.226914 -0.000261499 0)
(0.226076 -0.000237355 0)
(0.225137 -0.000213116 0)
(0.224213 -0.000188452 0)
(0.223145 -0.000165922 0)
(0.222111 -0.000148745 0)
(0.220951 -0.000132307 0)
(0.219829 -0.000117976 0)
(0.218592 -0.000106525 0)
(0.217427 -9.7517e-05 0)
(0.216164 -8.85048e-05 0)
(0.214987 -7.9978e-05 0)
(0.213705 -7.01869e-05 0)
(0.21251 -6.16559e-05 0)
(0.211196 -5.26576e-05 0)
(0.20997 -4.58403e-05 0)
(0.208625 -3.9999e-05 0)
(0.207391 -3.67555e-05 0)
(0.206053 -3.41922e-05 0)
(0.204856 -3.32037e-05 0)
(0.203563 -3.0802e-05 0)
(0.202421 -2.84392e-05 0)
(0.201162 -2.34172e-05 0)
(0.200045 -1.87673e-05 0)
(0.198783 -1.31501e-05 0)
(0.197661 -9.96509e-06 0)
(0.196389 -7.72605e-06 0)
(0.195287 -8.52066e-06 0)
(0.19405 -8.49589e-06 0)
(0.193013 -8.48038e-06 0)
(0.191834 -5.48219e-06 0)
(0.190846 -2.13375e-06 0)
(0.189675 2.71863e-06 0)
(0.188683 4.64864e-06 0)
(0.187496 5.74713e-06 0)
(0.186524 4.15763e-06 0)
(0.185376 3.48101e-06 0)
(0.184478 3.132e-06 0)
(0.183385 6.3849e-06 0)
(0.182532 8.00123e-06 0)
(0.18144 1.1004e-05 0)
(0.180589 1.14049e-05 0)
(0.179492 1.07716e-05 0)
(0.178686 8.14541e-06 0)
(0.177642 9.5477e-06 0)
(0.17691 9.74477e-06 0)
(0.175895 1.23025e-05 0)
(0.175186 1.28144e-05 0)
(0.174168 1.27686e-05 0)
(0.173494 1.06058e-05 0)
(0.172506 1.17437e-05 0)
(0.171893 1.12042e-05 0)
(0.170938 1.25319e-05 0)
(0.170373 1.12342e-05 0)
(0.169434 1.17143e-05 0)
(0.168906 1.1327e-05 0)
(0.167972 1.24332e-05 0)
(0.167501 9.89235e-06 0)
(0.166615 1.06821e-05 0)
(0.166206 9.98412e-06 0)
(0.165317 1.12347e-05 0)
(0.164938 1.02691e-05 0)
(0.164064 1.01205e-05 0)
(0.163777 6.79036e-06 0)
(0.162943 9.84562e-06 0)
(0.162681 1.0421e-05 0)
(0.161814 1.02707e-05 0)
(0.161626 6.87916e-06 0)
(0.160821 7.42483e-06 0)
(0.160718 6.78868e-06 0)
(0.159887 1.02872e-05 0)
(0.159783 9.03392e-06 0)
(0.158952 6.89872e-06 0)
(0.158991 4.14437e-06 0)
(0.158197 8.44535e-06 0)
(0.15824 7.52422e-06 0)
(0.157397 6.38259e-06 0)
(0.157549 3.89636e-06 0)
(0.15673 7.0124e-06 0)
(0.156921 5.41165e-06 0)
(0.156067 5.7092e-06 0)
(0.15635 3.58419e-06 0)
(0.155491 5.7488e-06 0)
(0.155836 3.70924e-06 0)
(0.154944 5.01921e-06 0)
(0.155369 2.82496e-06 0)
(0.154452 4.69863e-06 0)
(0.154953 2.49568e-06 0)
(0.153996 4.34922e-06 0)
(0.154578 2.00128e-06 0)
(0.153581 3.86346e-06 0)
(0.154247 1.67715e-06 0)
(0.153201 3.66272e-06 0)
(0.15395 1.28838e-06 0)
(0.152854 3.27981e-06 0)
(0.153693 9.6402e-07 0)
(0.152537 3.16167e-06 0)
(0.153466 6.65259e-07 0)
(0.152246 2.97486e-06 0)
(0.153268 4.28272e-07 0)
(0.151981 2.79778e-06 0)
(0.153098 1.77545e-07 0)
(0.151739 2.7009e-06 0)
(0.152951 3.98948e-08 0)
(0.151514 2.66988e-06 0)
(0.152822 -1.60611e-07 0)
(0.151304 2.65845e-06 0)
(0.152711 -3.1398e-07 0)
(0.151107 2.72284e-06 0)
(0.152612 -4.20429e-07 0)
(0.15092 2.85465e-06 0)
(0.152521 -4.60807e-07 0)
(0.150736 3.1278e-06 0)
(0.15243 -4.55166e-07 0)
(0.150547 3.57943e-06 0)
(0.152328 -3.31175e-07 0)
(0.15034 4.29747e-06 0)
(0.152199 7.40067e-08 0)
(0.150093 5.48658e-06 0)
(0.152013 9.07021e-07 0)
(0.149768 7.63684e-06 0)
(0.151718 2.5141e-06 0)
(0.149292 1.14953e-05 0)
(0.151214 6.17425e-06 0)
(0.148492 1.81977e-05 0)
(0.150328 1.90955e-05 0)
(0.146822 2.1587e-05 0)
(0.148869 7.2777e-05 0)
(0.142322 0.00012421 0)
(1.0102 0.00168324 0)
(1.00915 0.00269569 0)
(1.00607 0.00387266 0)
(1.00297 0.0050638 0)
(1.00032 0.00586251 0)
(0.998111 0.00612615 0)
(0.996393 0.00593089 0)
(0.995072 0.00552597 0)
(0.994142 0.0051726 0)
(0.993421 0.00499706 0)
(0.992824 0.00497301 0)
(0.992131 0.00501957 0)
(0.991305 0.00507539 0)
(0.990197 0.00511565 0)
(0.988853 0.00513971 0)
(0.987185 0.00515697 0)
(0.985289 0.00517519 0)
(0.983103 0.00519819 0)
(0.980741 0.00522434 0)
(0.978136 0.00525098 0)
(0.975397 0.00527462 0)
(0.972444 0.00529415 0)
(0.969375 0.00530878 0)
(0.966097 0.00532001 0)
(0.962705 0.00532849 0)
(0.959094 0.00533628 0)
(0.955361 0.00534338 0)
(0.951393 0.00535136 0)
(0.947291 0.0053592 0)
(0.942939 0.00536822 0)
(0.938442 0.00537655 0)
(0.933679 0.00538541 0)
(0.928762 0.00539276 0)
(0.923569 0.0053998 0)
(0.918213 0.00540482 0)
(0.912575 0.0054081 0)
(0.906768 0.00540875 0)
(0.900676 0.00540576 0)
(0.89441 0.00539959 0)
(0.887862 0.00538771 0)
(0.881142 0.00537134 0)
(0.874145 0.0053474 0)
(0.866988 0.00531689 0)
(0.859565 0.0052763 0)
(0.852006 0.00522604 0)
(0.844206 0.00516094 0)
(0.83632 0.00508136 0)
(0.82823 0.00498025 0)
(0.820136 0.00485452 0)
(0.811891 0.00470101 0)
(0.803753 0.00451171 0)
(0.795552 0.00429333 0)
(0.787581 0.00403637 0)
(0.779655 0.00375461 0)
(0.772075 0.00344694 0)
(0.764666 0.00312863 0)
(0.757673 0.00280883 0)
(0.750913 0.00249308 0)
(0.7446 0.00219776 0)
(0.73849 0.00192563 0)
(0.732829 0.00168229 0)
(0.72729 0.00147546 0)
(0.722158 0.00129787 0)
(0.717071 0.00115229 0)
(0.712342 0.00103159 0)
(0.707583 0.000937229 0)
(0.703141 0.000857121 0)
(0.698619 0.00079498 0)
(0.694354 0.000743595 0)
(0.689969 0.000702428 0)
(0.685836 0.000669751 0)
(0.681536 0.000649468 0)
(0.677476 0.00063396 0)
(0.673213 0.00062395 0)
(0.6692 0.00061704 0)
(0.664937 0.000614264 0)
(0.660932 0.000609362 0)
(0.65668 0.000604713 0)
(0.652688 0.00059704 0)
(0.648449 0.000589532 0)
(0.644491 0.000577251 0)
(0.640279 0.000566083 0)
(0.636383 0.000552984 0)
(0.632202 0.000543424 0)
(0.62836 0.000534019 0)
(0.624208 0.00052777 0)
(0.620405 0.000519442 0)
(0.61628 0.000512114 0)
(0.612526 0.000499479 0)
(0.608444 0.000487521 0)
(0.604777 0.000470235 0)
(0.600763 0.000456218 0)
(0.597206 0.00044037 0)
(0.593261 0.000430297 0)
(0.589794 0.00042031 0)
(0.585897 0.000414768 0)
(0.582497 0.000406608 0)
(0.578642 0.000399838 0)
(0.575325 0.000386369 0)
(0.57154 0.000374272 0)
(0.568346 0.000357231 0)
(0.564652 0.000346771 0)
(0.561579 0.000336972 0)
(0.557937 0.000333491 0)
(0.554943 0.000328527 0)
(0.551343 0.000323601 0)
(0.54843 0.000310551 0)
(0.544914 0.000300142 0)
(0.542149 0.000283974 0)
(0.538707 0.000277098 0)
(0.536083 0.000270231 0)
(0.532688 0.000268497 0)
(0.530126 0.000262708 0)
(0.526784 0.000257377 0)
(0.524356 0.000242162 0)
(0.52108 0.000234682 0)
(0.518816 0.000223133 0)
(0.515608 0.00022105 0)
(0.513444 0.000216073 0)
(0.510281 0.000212218 0)
(0.508238 0.000201879 0)
(0.505126 0.000197136 0)
(0.503233 0.000183996 0)
(0.500189 0.000181647 0)
(0.498456 0.000175274 0)
(0.495444 0.000171916 0)
(0.493806 0.000164865 0)
(0.490848 0.000161517 0)
(0.4894 0.000146867 0)
(0.486492 0.000146278 0)
(0.485195 0.000140999 0)
(0.482296 0.000138124 0)
(0.481138 0.000129182 0)
(0.478318 0.000126056 0)
(0.477369 0.000112908 0)
(0.474531 0.000116636 0)
(0.473721 0.000112087 0)
(0.470922 0.000106355 0)
(0.470327 9.4307e-05 0)
(0.467579 9.49767e-05 0)
(0.467161 8.73742e-05 0)
(0.46436 9.24666e-05 0)
(0.464113 8.57594e-05 0)
(0.461366 7.66325e-05 0)
(0.461359 6.34157e-05 0)
(0.458589 7.41381e-05 0)
(0.458774 7.04609e-05 0)
(0.455983 6.47233e-05 0)
(0.456383 5.3178e-05 0)
(0.45356 6.05447e-05 0)
(0.454177 5.3806e-05 0)
(0.451306 5.25191e-05 0)
(0.452153 4.34543e-05 0)
(0.449231 4.85353e-05 0)
(0.450309 4.07698e-05 0)
(0.447309 4.32901e-05 0)
(0.448627 3.50392e-05 0)
(0.445542 3.91709e-05 0)
(0.447103 3.11091e-05 0)
(0.443914 3.55532e-05 0)
(0.445724 2.71725e-05 0)
(0.442422 3.16325e-05 0)
(0.444481 2.36628e-05 0)
(0.441055 2.89944e-05 0)
(0.44337 2.03344e-05 0)
(0.439807 2.57606e-05 0)
(0.442382 1.73959e-05 0)
(0.438669 2.36892e-05 0)
(0.441505 1.47234e-05 0)
(0.437631 2.14443e-05 0)
(0.440733 1.22435e-05 0)
(0.436693 1.94722e-05 0)
(0.440059 9.89059e-06 0)
(0.435843 1.80068e-05 0)
(0.439469 8.23428e-06 0)
(0.435069 1.69478e-05 0)
(0.438954 6.48356e-06 0)
(0.434366 1.60265e-05 0)
(0.438508 4.8916e-06 0)
(0.433728 1.54293e-05 0)
(0.43812 3.50406e-06 0)
(0.433147 1.51175e-05 0)
(0.43778 2.55465e-06 0)
(0.432614 1.53817e-05 0)
(0.437473 2.02422e-06 0)
(0.432114 1.63592e-05 0)
(0.437183 2.08727e-06 0)
(0.431629 1.84025e-05 0)
(0.436882 3.28435e-06 0)
(0.431129 2.20724e-05 0)
(0.436528 6.46129e-06 0)
(0.430566 2.85617e-05 0)
(0.436048 1.33226e-05 0)
(0.429848 4.0115e-05 0)
(0.435312 2.86205e-05 0)
(0.428782 6.14259e-05 0)
(0.434052 6.60567e-05 0)
(0.426882 0.000110632 0)
(0.431609 0.000154059 0)
(0.422863 0.000402788 0)
(1.00897 0.00187721 0)