/*--------------------------------*- C++ -*----------------------------------*\
| =========                 |                                                 |
| \\      /  F ield         | OpenFOAM: The Open Source CFD Toolbox           |
|  \\    /   O peration     | Version:  v2012                                 |
|   \\  /    A nd           | Website:  www.openfoam.com                      |
|    \\/     M anipulation  |                                                 |
\*---------------------------------------------------------------------------*/
FoamFile
{
    version     2.0;
    format      ascii;
    class       volScalarField;
    location    "0.8";
    object      p;
}
// * * * * * * * * * * * * * * * * * * * * * * * * * * * * * * * * * * * * * //

dimensions      [0 2 -2 0 0 0 0];


internalField   nonuniform List<scalar> 
8800
(
7.74489e-10
0.000703114
0.000725233
0.000704171
0.000489995
0.000367137
0.000139191
-3.72125e-05
-0.000257842
-0.000470509
-0.000693439
-0.000924675
-0.00120436
-0.00150182
-0.00187846
-0.00229093
-0.00281467
-0.00343246
-0.00434701
-0.00608698
3.72902e-06
0.000700634
0.000726198
0.000702578
0.000492477
0.000365383
0.000141249
-3.81105e-05
-0.000255189
-0.000471533
-0.000694561
-0.00093143
-0.00120072
-0.00151142
-0.00186818
-0.00230366
-0.00280677
-0.00351093
-0.00446737
-0.00649697
1.03666e-05
0.000695067
0.000728374
0.000698962
0.000498098
0.000360938
0.000144222
-3.95807e-05
-0.000256867
-0.000471312
-0.000697313
-0.000932067
-0.00120221
-0.00150923
-0.00186891
-0.0023218
-0.00288016
-0.00357779
-0.00443347
-0.00624466
1.72373e-05
0.000689445
0.000728926
0.000698256
0.000501461
0.000362129
0.000140928
-3.04088e-05
-0.000273413
-0.0004603
-0.000714173
-0.000929932
-0.00120926
-0.00150163
-0.00186585
-0.00231183
-0.00303588
-0.00395196
-0.00521399
-0.00629989
2.86865e-05
0.000677115
0.000733844
0.000691063
0.000514514
0.000349226
0.000154815
-4.16328e-05
-0.000259464
-0.00047543
-0.00069873
-0.000945141
-0.00121342
-0.00151629
-0.00186461
-0.00231859
-0.00287891
-0.00359528
-0.00459099
-0.00673867
4.07411e-05
0.000664896
0.00073504
0.000689509
0.000520861
0.000348095
0.000158187
-4.57479e-05
-0.000262788
-0.000478985
-0.000705721
-0.000953405
-0.00121759
-0.00152147
-0.00185032
-0.00230035
-0.00286357
-0.00376659
-0.00510376
-0.00767911
5.66676e-05
0.00064741
0.000738645
0.000685828
0.000529076
0.000350877
0.000157349
-4.48222e-05
-0.000265065
-0.000481635
-0.000715737
-0.000961859
-0.00122922
-0.00151427
-0.00186026
-0.00229174
-0.00288659
-0.00374351
-0.00517361
-0.0078626
7.74462e-05
0.000621904
0.000743619
0.00068107
0.000532882
0.000355752
0.000162443
-4.60833e-05
-0.000262932
-0.000493364
-0.000729301
-0.00097872
-0.00122982
-0.00151946
-0.00185769
-0.00229816
-0.00289623
-0.00381086
-0.00536098
-0.0082432
9.97604e-05
0.000607645
0.000730164
0.000690726
0.000527581
0.000362
0.000169706
-6.37586e-05
-0.000255195
-0.000488281
-0.000748762
-0.000989066
-0.00123968
-0.00152181
-0.00186624
-0.00231169
-0.00293758
-0.00390632
-0.00555839
-0.00858464
0.000129678
0.000577783
0.000727829
0.000677811
0.000537275
0.00037629
0.000173768
-5.53571e-05
-0.000273593
-0.000511842
-0.000757161
-0.000997146
-0.00124776
-0.00153045
-0.00187876
-0.00233641
-0.00299264
-0.00401642
-0.00575426
-0.00888039
0.000160066
0.000559696
0.000711845
0.000667568
0.000553693
0.000376648
0.000163814
-3.49896e-05
-0.000287731
-0.00053201
-0.00076512
-0.0010028
-0.00125722
-0.00154377
-0.00189778
-0.00237207
-0.00306002
-0.00413696
-0.00594586
-0.00914912
0.000196808
0.00054199
0.000682678
0.000663581
0.000555999
0.000379191
0.000185336
-3.72121e-05
-0.000298368
-0.000548958
-0.000780903
-0.00101421
-0.00126942
-0.00156081
-0.00192388
-0.00241676
-0.00313722
-0.00426282
-0.00613251
-0.00939918
0.000238091
0.000526108
0.000650384
0.000650982
0.000547723
0.000401964
0.00020265
-5.25465e-05
-0.000308967
-0.000557053
-0.000795812
-0.00103066
-0.0012852
-0.00158182
-0.00195623
-0.00246924
-0.00322178
-0.00439132
-0.00631356
-0.00963488
0.000280988
0.000514095
0.000622031
0.000625111
0.000538654
0.000415615
0.000213758
-5.52799e-05
-0.000314525
-0.000564649
-0.00080946
-0.00104871
-0.00130497
-0.00160761
-0.00199514
-0.0025295
-0.00331243
-0.00452122
-0.00648731
-0.0098516
0.000320735
0.000513976
0.00059561
0.000593078
0.00052123
0.000413456
0.000231637
-4.17138e-05
-0.000324547
-0.000581578
-0.000824704
-0.00106622
-0.00132669
-0.00163753
-0.00203958
-0.00259557
-0.00340723
-0.00465114
-0.00665429
-0.0100553
0.00035922
0.000518683
0.0005759
0.000557106
0.00049361
0.000395205
0.000240274
-1.55319e-05
-0.000322455
-0.000598782
-0.000843968
-0.00108598
-0.0013508
-0.001671
-0.00208829
-0.00266544
-0.00350419
-0.00477943
-0.00681492
-0.0102482
0.000398318
0.000523918
0.000560525
0.000528722
0.000460958
0.000364407
0.00022481
2.64279e-06
-0.000297408
-0.000599934
-0.000864504
-0.0011114
-0.00137984
-0.00170887
-0.00214092
-0.00273825
-0.0036017
-0.00490481
-0.00696786
-0.0104278
0.000436961
0.000530244
0.000547277
0.000506544
0.000429239
0.000328298
0.000188831
-3.54246e-06
-0.000272752
-0.000580086
-0.000870316
-0.00113602
-0.001414
-0.00175161
-0.0021975
-0.00281335
-0.00369865
-0.00502565
-0.00711248
-0.0105952
0.000471036
0.000539037
0.000537082
0.000484873
0.000397466
0.000293678
0.000153828
-3.10942e-05
-0.000269011
-0.000557422
-0.000857423
-0.00114841
-0.00144615
-0.0017981
-0.0022574
-0.00288958
-0.00379358
-0.00514032
-0.00724707
-0.0107482
0.000499869
0.000549461
0.000531159
0.000462585
0.000366049
0.000258481
0.000120178
-6.11407e-05
-0.000284936
-0.000547852
-0.000840894
-0.0011468
-0.00146936
-0.00184169
-0.00231747
-0.0029649
-0.00388481
-0.00524784
-0.00737105
-0.010888
0.00052518
0.000558746
0.000525485
0.00044157
0.000334762
0.000222323
8.57003e-05
-8.97692e-05
-0.000303696
-0.000552212
-0.000832328
-0.00114204
-0.00148239
-0.00187707
-0.00237148
-0.00303498
-0.00396953
-0.0053466
-0.00748271
-0.0110121
0.000546131
0.000565822
0.000518813
0.000422657
0.00030478
0.000186019
5.03084e-05
-0.000117668
-0.000322397
-0.000561144
-0.000832638
-0.00114041
-0.0014907
-0.00190264
-0.00241604
-0.00309574
-0.00404444
-0.00543412
-0.00758153
-0.0111219
0.000561294
0.000569376
0.000512232
0.000405024
0.000276598
0.000150762
1.48904e-05
-0.000145932
-0.000340988
-0.00057118
-0.000836518
-0.00114198
-0.00149647
-0.00192017
-0.00244894
-0.00314417
-0.00410599
-0.00550683
-0.00766406
-0.0112136
0.00057023
0.000569253
0.000503635
0.000386982
0.000249446
0.000117896
-1.83376e-05
-0.00017378
-0.000359951
-0.000581586
-0.000840341
-0.0011424
-0.00149806
-0.00192847
-0.0024687
-0.00317685
-0.00415045
-0.00556096
-0.00772604
-0.0112824
0.000572743
0.000564921
0.000491224
0.000367049
0.000223258
8.80483e-05
-4.84174e-05
-0.000199835
-0.000378652
-0.000591646
-0.000842493
-0.00113852
-0.00149161
-0.00192427
-0.00247136
-0.00318918
-0.00417321
-0.00559298
-0.00776518
-0.0113276
0.000567002
0.00055426
0.000475809
0.000346226
0.000197492
5.99732e-05
-7.53862e-05
-0.000223107
-0.000395371
-0.000600219
-0.000841818
-0.001129
-0.00147474
-0.0019029
-0.00244974
-0.00317316
-0.00416704
-0.00559776
-0.00778039
-0.0113528
0.000551551
0.000536315
0.000456715
0.000324358
0.000172001
3.24405e-05
-0.000100853
-0.000243291
-0.000408326
-0.000603583
-0.000835086
-0.0011126
-0.001448
-0.00186289
-0.00239362
-0.00310017
-0.0040809
-0.0055057
-0.00769304
-0.0112764
0.000525725
0.00051003
0.000432011
0.000300581
0.000147019
5.72442e-06
-0.000126539
-0.000263741
-0.000417999
-0.000597691
-0.000812321
-0.00107717
-0.00141068
-0.00183541
-0.00238223
-0.00310283
-0.00408886
-0.00550212
-0.00767195
-0.0112443
0.000486953
0.000473516
0.000400534
0.000274065
0.000122963
-1.76796e-05
-0.000151847
-0.000287828
-0.000434167
-0.00059452
-0.000774116
-0.000987962
-0.00125883
-0.00161846
-0.00210986
-0.00279615
-0.00377235
-0.00521018
-0.00741032
-0.0110073
0.000433936
0.000424993
0.000358054
0.00023901
9.80163e-05
-3.46292e-05
-0.000162772
-0.000294843
-0.000439449
-0.000606399
-0.000804495
-0.00104434
-0.0013398
-0.00171167
-0.00219286
-0.00283955
-0.00374299
-0.00510072
-0.00724074
-0.0107989
0.000369688
0.000368888
0.000305435
0.000184885
4.02812e-05
-9.07507e-05
-0.000201363
-0.000292081
-0.000374681
-0.000458982
-0.00055715
-0.000685908
-0.00086863
-0.00113904
-0.00154657
-0.00216227
-0.00308862
-0.00449586
-0.00671319
-0.0104028
0.000271218
0.000298425
0.00027629
0.000176873
2.97299e-05
-0.000124432
-0.000279635
-0.000431743
-0.000588086
-0.000748122
-0.000912709
-0.00108107
-0.00126272
-0.00147556
-0.00175449
-0.00215206
-0.00277773
-0.00380267
-0.00556694
-0.00877665
0.000190239
0.000159959
0.000103063
2.81781e-05
-4.14741e-05
-8.20338e-05
-0.000108685
-0.00012949
-0.000149282
-0.000168885
-0.000189146
-0.000221005
-0.000291774
-0.000442331
-0.000730706
-0.00123669
-0.00208511
-0.00348271
-0.00579168
-0.00973833
0.000135515
0.000127465
8.13768e-05
-1.44184e-05
-0.000168681
-0.000369025
-0.00060974
-0.000882063
-0.00114849
-0.00135405
-0.0014379
-0.0013893
-0.00131387
-0.00130675
-0.00138034
-0.00143087
-0.00123684
-0.000465156
0.00135137
0.00496823
-0.000167812
-0.000197685
-0.000161651
-8.61587e-05
3.16107e-05
0.000167053
0.00026505
0.000307105
0.00032437
0.000351187
0.000395029
0.000428169
0.000410481
0.000287001
1.89746e-06
-0.000527504
-0.00144419
-0.00297781
-0.00548166
-0.00953677
-0.000129102
-0.000111422
-0.000184341
-0.000331641
-0.000534009
-0.000751522
-0.000941313
-0.00104277
-0.0010234
-0.000925788
-0.000806469
-0.000690662
-0.000566287
-0.000389402
-9.35456e-05
0.00042142
0.00132139
0.00284061
0.00534844
0.00951322
-0.000599139
-0.000583999
-0.000424753
-0.000193752
7.633e-05
0.000360931
0.00059752
0.000736301
0.000798655
0.000849682
0.000932775
0.00103899
0.00112527
0.00111726
0.00093015
0.000453526
-0.000470311
-0.00205211
-0.00463287
-0.00885606
-0.000518089
-0.000517506
-0.000597182
-0.000730645
-0.000854294
-0.000899565
-0.000862567
-0.000764613
-0.00062044
-0.000427271
-0.000170992
0.000162209
0.000589153
0.00113103
0.00182568
0.00273597
0.00397121
0.00571918
0.00831923
0.0124337
-0.000976346
-0.000925492
-0.000736166
-0.000489234
-0.000217157
9.00147e-05
0.000414996
0.000729758
0.000989129
0.00117359
0.00135833
0.00162309
0.0019749
0.00233656
0.00257468
0.00254681
0.00209759
0.00101163
-0.0010907
-0.00492399
-0.000976146
-0.000990398
-0.00102315
-0.00109052
-0.00117502
-0.00122547
-0.00120537
-0.00107115
-0.000794131
-0.000351672
0.000266899
0.00106819
0.00205753
0.00324987
0.00465747
0.00629169
0.00818551
0.0104419
0.0133228
0.0174242
-0.00774403
-0.00697686
-0.00426229
-0.00160427
0.000460744
0.00188738
0.00274916
0.00312685
0.0030842
0.00269581
0.00207008
0.00133809
0.000616422
-1.82076e-05
-0.000530294
-0.000915945
-0.00119207
-0.00138737
-0.00153243
-0.00165407
-0.00177216
-0.00189997
-0.00204515
-0.0022113
-0.00239918
-0.00260751
-0.00283414
-0.00307632
-0.00333178
-0.00359834
-0.00387445
-0.00415887
-0.00445093
-0.00475058
-0.00505797
-0.00537396
-0.00569924
-0.00603506
-0.00638243
-0.00674231
-0.00711587
-0.00750331
-0.00790569
-0.00832269
-0.00875463
-0.00920195
-0.0096632
-0.010139
-0.0106253
-0.0111184
-0.0116122
-0.0120974
-0.012566
-0.0130069
-0.0134118
-0.0137731
-0.0140855
-0.014348
-0.0145589
-0.0147232
-0.0148479
-0.0149405
-0.015013
-0.0150766
-0.0151394
-0.015209
-0.0152903
-0.0153859
-0.0154968
-0.0156237
-0.0157695
-0.0159356
-0.0161208
-0.0163244
-0.0165427
-0.0167719
-0.017009
-0.0172527
-0.0175047
-0.0177648
-0.0180338
-0.018311
-0.0185943
-0.018883
-0.0191756
-0.0194716
-0.0197711
-0.0200723
-0.0203745
-0.0206779
-0.0209846
-0.0212964
-0.0216143
-0.0219389
-0.0222658
-0.0225934
-0.0229203
-0.0232469
-0.0235781
-0.0239165
-0.0242604
-0.0246099
-0.0249583
-0.025306
-0.0256556
-0.0260089
-0.0263686
-0.026734
-0.0271007
-0.027469
-0.0278368
-0.0282074
-0.028584
-0.0289624
-0.0293455
-0.0297358
-0.0301241
-0.0305122
-0.0309039
-0.0312977
-0.031697
-0.032103
-0.0325074
-0.0329155
-0.0333234
-0.0337277
-0.0341443
-0.0345776
-0.0350017
-0.0354138
-0.035828
-0.0362534
-0.0366991
-0.0371534
-0.0375803
-0.0379964
-0.0384436
-0.0389076
-0.0393488
-0.0397872
-0.0402457
-0.0407117
-0.0411675
-0.041626
-0.0420924
-0.0425631
-0.0430326
-0.0435068
-0.0439852
-0.0444671
-0.0449493
-0.045438
-0.0459289
-0.0464233
-0.0469183
-0.0474216
-0.0479261
-0.0484343
-0.0489436
-0.0494596
-0.0499766
-0.0504995
-0.0510243
-0.0515559
-0.0520872
-0.0526252
-0.0531634
-0.0537092
-0.0542552
-0.0548087
-0.0553626
-0.0559242
-0.0564857
-0.0570553
-0.0576239
-0.0582016
-0.0587779
-0.0593634
-0.0599476
-0.0605408
-0.0611323
-0.0617332
-0.0623314
-0.06294
-0.0635445
-0.0641599
-0.0647701
-0.0653907
-0.0660045
-0.0666281
-0.0672416
-0.0678639
-0.0684708
-0.0690831
-0.0696713
-0.0702567
-0.0707997
-0.0713232
-0.0717546
-0.0721481
-0.00833242
-0.00741125
-0.00453668
-0.00178901
0.000374656
0.00190672
0.00283629
0.00322291
0.0031464
0.00271544
0.00206256
0.00132081
0.000599218
-3.26479e-05
-0.000543301
-0.000929576
-0.00120732
-0.00140406
-0.00154965
-0.00167091
-0.00178799
-0.00191463
-0.00205876
-0.00222414
-0.00241159
-0.00261973
-0.00284637
-0.00308857
-0.00334408
-0.0036106
-0.00388664
-0.00417092
-0.00446274
-0.0047621
-0.00506908
-0.00538461
-0.00570932
-0.00604443
-0.00639105
-0.00674994
-0.00712244
-0.00750868
-0.00790954
-0.00832514
-0.00875508
-0.00920038
-0.00965933
-0.0101317
-0.0106146
-0.0111036
-0.0115934
-0.0120749
-0.01254
-0.0129788
-0.0133831
-0.0137456
-0.0140597
-0.0143245
-0.0145381
-0.0147046
-0.0148317
-0.0149266
-0.0150007
-0.0150662
-0.0151306
-0.0152017
-0.015284
-0.0153803
-0.0154922
-0.0156196
-0.0157656
-0.0159323
-0.0161177
-0.0163213
-0.0165396
-0.0167689
-0.0170061
-0.0172498
-0.017502
-0.0177622
-0.0180313
-0.0183087
-0.018592
-0.0188806
-0.0191732
-0.0194691
-0.0197687
-0.02007
-0.0203724
-0.0206759
-0.0209827
-0.0212945
-0.0216125
-0.021937
-0.022264
-0.0225917
-0.0229186
-0.0232454
-0.0235767
-0.0239151
-0.0242591
-0.0246085
-0.024957
-0.0253047
-0.0256544
-0.0260078
-0.0263675
-0.026733
-0.0270997
-0.027468
-0.0278358
-0.0282065
-0.0285832
-0.0289615
-0.0293446
-0.0297351
-0.0301234
-0.0305116
-0.0309033
-0.031297
-0.0316964
-0.0321024
-0.0325068
-0.032915
-0.0333229
-0.0337271
-0.0341438
-0.0345773
-0.0350014
-0.0354135
-0.0358276
-0.0362529
-0.0366988
-0.0371532
-0.0375801
-0.037996
-0.0384433
-0.0389076
-0.0393486
-0.0397869
-0.0402455
-0.0407116
-0.0411673
-0.0416259
-0.0420923
-0.042563
-0.0430325
-0.0435067
-0.0439851
-0.0444671
-0.0449492
-0.045438
-0.0459288
-0.0464232
-0.0469182
-0.0474216
-0.047926
-0.0484343
-0.0489435
-0.0494595
-0.0499766
-0.0504995
-0.0510242
-0.0515559
-0.0520872
-0.0526251
-0.0531634
-0.0537092
-0.0542552
-0.0548087
-0.0553626
-0.0559242
-0.0564857
-0.0570553
-0.0576239
-0.0582016
-0.0587779
-0.0593634
-0.0599476
-0.0605408
-0.0611323
-0.0617332
-0.0623314
-0.06294
-0.0635445
-0.0641599
-0.0647701
-0.0653907
-0.0660045
-0.0666281
-0.0672416
-0.0678639
-0.0684708
-0.0690832
-0.0696714
-0.0702568
-0.0707997
-0.0713236
-0.071756
-0.0721486
-0.00832732
-0.00782619
-0.00519497
-0.00239041
3.26451e-05
0.00183749
0.00295114
0.00338813
0.00326099
0.00275219
0.00204571
0.00128479
0.000565128
-5.85029e-05
-0.000562742
-0.000946499
-0.00122467
-0.00142274
-0.00156914
-0.00169012
-0.00180608
-0.00193121
-0.00207394
-0.00223832
-0.00242531
-0.00263349
-0.00286046
-0.00310319
-0.00335918
-0.00362616
-0.00390251
-0.00418701
-0.00447887
-0.00477812
-0.00508486
-0.00539996
-0.0057241
-0.00605839
-0.00640397
-0.00676158
-0.00713242
-0.0075168
-0.00791525
-0.00832815
-0.00875487
-0.00919611
-0.00965036
-0.0101164
-0.0105919
-0.0110723
-0.0115526
-0.0120249
-0.0124812
-0.0129129
-0.0133118
-0.0136713
-0.0139855
-0.0142523
-0.0144712
-0.0146446
-0.0147792
-0.0148831
-0.0149653
-0.0150379
-0.015109
-0.0151854
-0.0152719
-0.0153714
-0.015486
-0.0156162
-0.0157647
-0.0159334
-0.0161204
-0.0163244
-0.016542
-0.0167707
-0.0170075
-0.0172512
-0.0175033
-0.0177638
-0.0180332
-0.0183106
-0.0185936
-0.0188818
-0.0191737
-0.019469
-0.0197679
-0.0200689
-0.0203714
-0.0206754
-0.0209828
-0.0212948
-0.0216124
-0.0219364
-0.0222626
-0.02259
-0.0229172
-0.0232445
-0.0235764
-0.0239149
-0.0242585
-0.0246073
-0.0249554
-0.0253031
-0.0256533
-0.026007
-0.026367
-0.0267321
-0.0270984
-0.0274666
-0.0278345
-0.0282054
-0.0285823
-0.0289607
-0.0293436
-0.0297338
-0.0301221
-0.0305104
-0.0309023
-0.031296
-0.0316954
-0.0321014
-0.0325057
-0.0329139
-0.033322
-0.0337263
-0.0341428
-0.0345763
-0.0350004
-0.0354125
-0.0358269
-0.0362522
-0.0366978
-0.0371523
-0.0375793
-0.0379953
-0.0384426
-0.038907
-0.039348
-0.0397863
-0.040245
-0.0407111
-0.0411667
-0.0416254
-0.0420918
-0.0425625
-0.0430321
-0.0435063
-0.0439847
-0.0444667
-0.0449489
-0.0454377
-0.0459286
-0.046423
-0.046918
-0.0474214
-0.0479258
-0.0484341
-0.0489434
-0.0494594
-0.0499765
-0.0504994
-0.0510241
-0.0515557
-0.052087
-0.0526251
-0.0531633
-0.0537091
-0.0542551
-0.0548086
-0.0553626
-0.0559242
-0.0564856
-0.0570553
-0.0576239
-0.0582016
-0.0587779
-0.0593634
-0.0599476
-0.0605408
-0.0611323
-0.0617333
-0.0623315
-0.06294
-0.0635446
-0.0641599
-0.0647702
-0.0653908
-0.0660047
-0.0666282
-0.0672418
-0.0678642
-0.0684712
-0.0690836
-0.0696721
-0.0702578
-0.0708013
-0.0713258
-0.0717638
-0.0721562
-0.00619832
-0.00642612
-0.00566323
-0.00337264
-0.000598502
0.0016353
0.00299685
0.00348623
0.00330513
0.00272611
0.00197526
0.0012015
0.000489392
-0.000119764
-0.000611246
-0.000987064
-0.00126185
-0.00145887
-0.00160467
-0.00172429
-0.00183807
-0.00196049
-0.00210059
-0.00226281
-0.00244835
-0.00265582
-0.0028826
-0.00312551
-0.00338175
-0.00364905
-0.00392558
-0.00421015
-0.00450192
-0.00480087
-0.00510719
-0.0054216
-0.00574489
-0.00607801
-0.00642209
-0.00677793
-0.00714642
-0.00752812
-0.00792323
-0.00833219
-0.00875443
-0.00919
-0.00963785
-0.0100962
-0.010563
-0.0110338
-0.0115034
-0.0119651
-0.0124114
-0.0128348
-0.0132276
-0.0135837
-0.0138981
-0.0141678
-0.0143929
-0.0145746
-0.0147181
-0.0148318
-0.0149235
-0.0150042
-0.0150826
-0.015165
-0.0152566
-0.0153601
-0.0154781
-0.0156121
-0.0157636
-0.0159342
-0.0161224
-0.0163266
-0.0165436
-0.0167713
-0.0170076
-0.0172511
-0.0175032
-0.0177641
-0.0180339
-0.0183114
-0.0185944
-0.0188818
-0.0191728
-0.019467
-0.0197648
-0.0200654
-0.0203683
-0.0206731
-0.0209814
-0.0212939
-0.0216113
-0.0219343
-0.0222594
-0.0225861
-0.0229137
-0.023242
-0.0235748
-0.0239138
-0.0242569
-0.0246048
-0.0249521
-0.0252999
-0.0256507
-0.0260053
-0.0263655
-0.0267303
-0.027096
-0.0274637
-0.0278318
-0.0282033
-0.0285806
-0.0289592
-0.0293416
-0.0297314
-0.0301197
-0.0305083
-0.0309004
-0.0312944
-0.0316937
-0.0320993
-0.0325034
-0.0329118
-0.0333203
-0.033725
-0.0341413
-0.0345741
-0.034998
-0.0354108
-0.0358259
-0.0362513
-0.0366962
-0.03715
-0.0375774
-0.0379942
-0.0384415
-0.0389054
-0.0393465
-0.0397852
-0.0402439
-0.0407098
-0.0411655
-0.0416243
-0.0420908
-0.0425615
-0.0430311
-0.0435055
-0.0439839
-0.0444659
-0.0449482
-0.045437
-0.0459279
-0.0464223
-0.0469174
-0.0474208
-0.0479253
-0.0484336
-0.0489429
-0.049459
-0.049976
-0.050499
-0.0510237
-0.0515554
-0.0520867
-0.0526247
-0.053163
-0.0537089
-0.0542549
-0.0548084
-0.0553624
-0.055924
-0.0564855
-0.0570551
-0.0576238
-0.0582014
-0.0587778
-0.0593633
-0.0599476
-0.0605407
-0.0611323
-0.0617332
-0.0623315
-0.0629399
-0.0635447
-0.0641599
-0.0647704
-0.0653908
-0.066005
-0.0666284
-0.0672423
-0.0678645
-0.0684721
-0.0690844
-0.0696737
-0.0702597
-0.0708051
-0.0713304
-0.071778
-0.0721718
-0.00909954
-0.00872369
-0.00606696
-0.00295179
-0.000126575
0.0019723
0.00320943
0.00360992
0.0033678
0.00274566
0.00196599
0.00117736
0.000461476
-0.000145276
-0.000632672
-0.00100548
-0.00127943
-0.00147719
-0.00162412
-0.00174424
-0.00185757
-0.00197879
-0.00211738
-0.00227829
-0.00246299
-0.00267031
-0.00289744
-0.00314114
-0.00339827
-0.00366649
-0.0039438
-0.00422897
-0.0045211
-0.00482011
-0.00512627
-0.00544019
-0.0057627
-0.00609471
-0.00643726
-0.00679122
-0.00715725
-0.00753597
-0.00792751
-0.00833207
-0.00874927
-0.00917859
-0.00961914
-0.0100691
-0.0105262
-0.0109867
-0.0114452
-0.0118961
-0.0123325
-0.0127474
-0.0131343
-0.0134872
-0.0138017
-0.014075
-0.0143061
-0.0144967
-0.0146497
-0.0147734
-0.0148751
-0.0149646
-0.0150508
-0.01514
-0.0152374
-0.0153459
-0.0154683
-0.0156064
-0.0157611
-0.0159337
-0.0161229
-0.0163273
-0.0165438
-0.0167705
-0.0170062
-0.0172496
-0.017502
-0.0177635
-0.018034
-0.018312
-0.0185949
-0.0188816
-0.0191715
-0.0194644
-0.019761
-0.0200611
-0.0203645
-0.0206704
-0.02098
-0.0212932
-0.0216101
-0.0219319
-0.0222556
-0.0225815
-0.0229095
-0.023239
-0.0235732
-0.0239128
-0.0242553
-0.0246018
-0.0249482
-0.0252959
-0.0256476
-0.0260033
-0.0263639
-0.0267283
-0.027093
-0.0274602
-0.0278285
-0.0282005
-0.0285785
-0.0289573
-0.0293391
-0.0297281
-0.0301165
-0.0305053
-0.0308978
-0.0312923
-0.0316913
-0.0320963
-0.0325003
-0.032909
-0.033318
-0.0337232
-0.0341389
-0.0345707
-0.0349947
-0.0354083
-0.0358242
-0.03625
-0.0366938
-0.0371464
-0.0375745
-0.0379928
-0.0384398
-0.0389028
-0.0393442
-0.0397837
-0.0402422
-0.0407077
-0.0411635
-0.0416226
-0.0420892
-0.0425599
-0.0430296
-0.043504
-0.0439825
-0.0444646
-0.0449469
-0.0454357
-0.0459267
-0.0464212
-0.0469164
-0.0474198
-0.0479243
-0.0484326
-0.0489421
-0.0494582
-0.0499753
-0.0504983
-0.0510231
-0.0515547
-0.0520861
-0.0526241
-0.0531625
-0.0537083
-0.0542545
-0.0548079
-0.0553621
-0.0559236
-0.0564852
-0.0570547
-0.0576235
-0.0582011
-0.0587776
-0.059363
-0.0599475
-0.0605404
-0.0611323
-0.0617329
-0.0623315
-0.0629398
-0.0635448
-0.0641598
-0.0647707
-0.0653908
-0.0660055
-0.0666286
-0.0672432
-0.067865
-0.0684736
-0.0690855
-0.0696765
-0.0702622
-0.0708114
-0.0713376
-0.0717972
-0.0721954
-0.00995743
-0.00912539
-0.00573867
-0.00227379
0.000479804
0.00236955
0.00339984
0.00367686
0.00337989
0.00273193
0.00193861
0.00114251
0.000423333
-0.000183613
-0.00066924
-0.00103959
-0.00131141
-0.00150772
-0.00165351
-0.00177244
-0.00188421
-0.00200355
-0.00214014
-0.00229924
-0.00248258
-0.00268913
-0.00291613
-0.00316013
-0.00341789
-0.0036868
-0.00396478
-0.00425043
-0.00454283
-0.0048418
-0.0051476
-0.00546086
-0.00578233
-0.00611295
-0.00645366
-0.00680538
-0.00716865
-0.007544
-0.00793156
-0.00833129
-0.00874287
-0.00916549
-0.00959824
-0.0100395
-0.0104866
-0.0109365
-0.0113841
-0.0118243
-0.012251
-0.0126578
-0.0130388
-0.0133885
-0.0137031
-0.0139796
-0.0142168
-0.0144157
-0.0145785
-0.0147121
-0.014824
-0.0149227
-0.0150169
-0.0151133
-0.0152169
-0.0153309
-0.015458
-0.0156002
-0.0157582
-0.0159328
-0.016123
-0.0163276
-0.0165436
-0.0167695
-0.0170045
-0.0172479
-0.0175007
-0.017763
-0.0180343
-0.0183128
-0.0185956
-0.0188815
-0.0191701
-0.0194616
-0.0197569
-0.0200565
-0.0203606
-0.0206678
-0.0209787
-0.0212926
-0.0216089
-0.0219293
-0.0222514
-0.0225763
-0.0229048
-0.023236
-0.0235716
-0.0239119
-0.0242535
-0.0245983
-0.0249436
-0.0252913
-0.0256441
-0.0260011
-0.0263622
-0.026726
-0.0270896
-0.027456
-0.0278247
-0.0281975
-0.0285762
-0.0289552
-0.0293362
-0.0297243
-0.0301128
-0.030502
-0.030895
-0.0312898
-0.0316884
-0.0320929
-0.0324969
-0.0329057
-0.0333153
-0.0337209
-0.034136
-0.0345669
-0.034991
-0.0354053
-0.0358222
-0.0362483
-0.0366908
-0.0371421
-0.0375713
-0.0379911
-0.0384377
-0.0388997
-0.0393416
-0.0397818
-0.0402401
-0.0407052
-0.0411612
-0.0416206
-0.0420872
-0.0425579
-0.0430277
-0.0435023
-0.0439807
-0.0444629
-0.0449454
-0.0454342
-0.0459252
-0.0464198
-0.0469152
-0.0474185
-0.047923
-0.0484314
-0.048941
-0.0494571
-0.0499744
-0.0504973
-0.0510222
-0.0515538
-0.0520853
-0.0526233
-0.0531619
-0.0537076
-0.054254
-0.0548073
-0.0553616
-0.055923
-0.0564848
-0.0570542
-0.0576232
-0.0582006
-0.0587774
-0.0593625
-0.0599473
-0.06054
-0.0611322
-0.0617326
-0.0623316
-0.0629395
-0.063545
-0.0641596
-0.0647711
-0.0653908
-0.0660061
-0.0666287
-0.0672443
-0.0678656
-0.0684755
-0.0690869
-0.0696801
-0.0702656
-0.0708195
-0.0713473
-0.0718189
-0.0722244
-0.0103306
-0.00960187
-0.00603693
-0.00234921
0.000539581
0.00246913
0.00346054
0.00367314
0.00333527
0.00267498
0.00188074
0.00108492
0.00036527
-0.000241903
-0.000726483
-0.00109411
-0.00136189
-0.00155386
-0.00169559
-0.00181108
-0.00191977
-0.00203634
-0.00217027
-0.00232698
-0.0025083
-0.00271339
-0.0029396
-0.00318335
-0.00344132
-0.00371063
-0.00398911
-0.00427512
-0.00456765
-0.00486645
-0.0051717
-0.00548408
-0.00580425
-0.00613319
-0.00647175
-0.00682085
-0.007181
-0.00755256
-0.00793566
-0.00833012
-0.00873555
-0.00915111
-0.00957575
-0.0100079
-0.0104452
-0.0108844
-0.0113213
-0.011751
-0.0121682
-0.0125669
-0.012942
-0.0132887
-0.0136031
-0.0138826
-0.0141254
-0.0143321
-0.0145045
-0.0146482
-0.0147701
-0.0148783
-0.0149809
-0.0150848
-0.015195
-0.0153149
-0.015447
-0.0155934
-0.0157546
-0.0159315
-0.0161227
-0.0163273
-0.0165429
-0.0167681
-0.0170025
-0.0172459
-0.0174993
-0.0177626
-0.0180349
-0.0183139
-0.0185966
-0.0188816
-0.0191687
-0.0194585
-0.0197525
-0.0200517
-0.0203565
-0.0206652
-0.0209776
-0.021292
-0.0216075
-0.0219262
-0.0222467
-0.0225708
-0.0229
-0.0232329
-0.0235701
-0.0239108
-0.0242515
-0.0245944
-0.0249384
-0.0252863
-0.0256404
-0.0259989
-0.0263604
-0.0267234
-0.0270857
-0.0274514
-0.0278205
-0.0281943
-0.0285737
-0.0289529
-0.029333
-0.0297202
-0.0301088
-0.0304986
-0.0308919
-0.031287
-0.0316853
-0.0320892
-0.0324932
-0.0329022
-0.0333124
-0.0337184
-0.0341329
-0.0345629
-0.034987
-0.0354022
-0.03582
-0.0362463
-0.0366876
-0.0371376
-0.0375679
-0.0379893
-0.0384354
-0.0388963
-0.0393387
-0.0397797
-0.0402378
-0.0407024
-0.0411587
-0.0416184
-0.0420851
-0.0425556
-0.0430257
-0.0435003
-0.0439788
-0.044461
-0.0449437
-0.0454325
-0.0459235
-0.0464183
-0.0469138
-0.047417
-0.0479216
-0.04843
-0.0489398
-0.0494559
-0.0499734
-0.0504962
-0.0510213
-0.0515527
-0.0520845
-0.0526223
-0.0531612
-0.0537068
-0.0542534
-0.0548066
-0.0553611
-0.0559223
-0.0564844
-0.0570535
-0.0576229
-0.0582
-0.0587772
-0.059362
-0.0599472
-0.0605395
-0.0611322
-0.0617322
-0.0623317
-0.0629392
-0.0635453
-0.0641594
-0.0647716
-0.0653907
-0.066007
-0.0666289
-0.0672457
-0.0678663
-0.0684779
-0.0690886
-0.0696845
-0.0702697
-0.0708286
-0.071359
-0.0718416
-0.0722564
-0.0108511
-0.0101872
-0.00651863
-0.00258789
0.000516536
0.00257455
0.00360352
0.00379054
0.00340443
0.00270116
0.00187733
0.00106299
0.000332144
-0.000281411
-0.000768631
-0.00113588
-0.00140112
-0.0015895
-0.00172755
-0.00183982
-0.00194589
-0.00206027
-0.00219234
-0.0023474
-0.00252738
-0.00273152
-0.00295731
-0.00320115
-0.00345964
-0.00372972
-0.00400906
-0.00429584
-0.00458887
-0.00488784
-0.0051928
-0.00550449
-0.00582348
-0.00615076
-0.00648716
-0.00683353
-0.0071904
-0.00755798
-0.00793637
-0.00832532
-0.00872437
-0.0091327
-0.00954912
-0.00997215
-0.0103995
-0.0108281
-0.0112544
-0.0116738
-0.0120814
-0.0124723
-0.0128415
-0.013185
-0.0134991
-0.0137813
-0.0140293
-0.0142434
-0.014425
-0.0145787
-0.0147108
-0.0148287
-0.0149402
-0.0150519
-0.0151692
-0.0152954
-0.0154329
-0.0155838
-0.0157486
-0.015928
-0.0161205
-0.0163252
-0.0165404
-0.0167651
-0.0169991
-0.0172427
-0.0174969
-0.0177614
-0.0180348
-0.0183144
-0.0185969
-0.0188809
-0.0191664
-0.0194546
-0.0197472
-0.0200461
-0.0203519
-0.0206622
-0.0209759
-0.021291
-0.0216055
-0.0219224
-0.0222413
-0.0225646
-0.0228948
-0.0232296
-0.0235682
-0.0239093
-0.0242488
-0.0245899
-0.0249328
-0.025281
-0.0256365
-0.0259965
-0.0263583
-0.0267205
-0.0270815
-0.0274463
-0.0278161
-0.0281909
-0.0285709
-0.0289502
-0.0293294
-0.0297156
-0.0301045
-0.030495
-0.0308885
-0.0312838
-0.0316819
-0.0320853
-0.0324892
-0.0328985
-0.033309
-0.0337156
-0.0341296
-0.0345586
-0.0349829
-0.0353989
-0.0358173
-0.036244
-0.0366842
-0.037133
-0.0375641
-0.0379871
-0.0384329
-0.0388927
-0.0393356
-0.0397774
-0.0402352
-0.0406995
-0.0411559
-0.0416159
-0.0420827
-0.0425532
-0.0430235
-0.0434981
-0.0439767
-0.044459
-0.0449418
-0.0454306
-0.0459217
-0.0464166
-0.0469123
-0.0474154
-0.0479201
-0.0484285
-0.0489385
-0.0494545
-0.0499723
-0.0504951
-0.0510203
-0.0515516
-0.0520835
-0.0526213
-0.0531604
-0.0537059
-0.0542528
-0.0548057
-0.0553606
-0.0559215
-0.0564839
-0.0570528
-0.0576226
-0.0581994
-0.058777
-0.0593614
-0.059947
-0.060539
-0.0611322
-0.0617318
-0.0623319
-0.0629388
-0.0635457
-0.0641592
-0.0647722
-0.0653907
-0.066008
-0.0666292
-0.0672473
-0.0678672
-0.0684805
-0.0690907
-0.0696892
-0.0702747
-0.0708384
-0.0713725
-0.0718649
-0.07229
-0.0112668
-0.0106169
-0.006868
-0.00277442
0.000496982
0.00268176
0.00377539
0.00395734
0.00352257
0.00276064
0.00188875
0.00104217
0.000292281
-0.000331292
-0.000822131
-0.00118861
-0.00145041
-0.00163412
-0.00176738
-0.0018753
-0.00197774
-0.00208908
-0.00221862
-0.00237156
-0.00254986
-0.0027528
-0.0029779
-0.00322156
-0.00348031
-0.00375095
-0.00403098
-0.00431841
-0.00461187
-0.00491093
-0.00521554
-0.0055264
-0.00584406
-0.00616949
-0.00650346
-0.00684679
-0.00719999
-0.00756323
-0.00793654
-0.00831961
-0.00871197
-0.00911273
-0.00952068
-0.00993433
-0.0103516
-0.0107697
-0.0111853
-0.0115943
-0.0119926
-0.0123756
-0.0127391
-0.0130795
-0.0133932
-0.0136775
-0.0139304
-0.0141515
-0.0143421
-0.0145057
-0.014648
-0.0147758
-0.0148964
-0.0150164
-0.015141
-0.0152739
-0.0154174
-0.0155732
-0.015742
-0.015924
-0.0161178
-0.0163226
-0.0165374
-0.0167615
-0.0169952
-0.0172391
-0.0174943
-0.0177601
-0.0180348
-0.0183149
-0.0185973
-0.0188803
-0.019164
-0.0194503
-0.0197417
-0.0200403
-0.0203473
-0.0206593
-0.0209744
-0.0212899
-0.0216035
-0.0219184
-0.0222357
-0.0225583
-0.0228893
-0.0232262
-0.0235663
-0.0239076
-0.0242461
-0.0245852
-0.0249271
-0.0252755
-0.0256324
-0.025994
-0.0263561
-0.0267173
-0.027077
-0.0274412
-0.0278115
-0.0281874
-0.028568
-0.0289474
-0.0293258
-0.029711
-0.0301
-0.0304911
-0.030885
-0.0312806
-0.0316783
-0.0320812
-0.0324851
-0.0328945
-0.0333056
-0.0337126
-0.0341261
-0.0345541
-0.0349785
-0.0353952
-0.0358145
-0.0362416
-0.0366808
-0.0371282
-0.0375601
-0.0379847
-0.0384302
-0.0388889
-0.0393323
-0.0397749
-0.0402326
-0.0406963
-0.0411531
-0.0416134
-0.0420802
-0.0425507
-0.0430211
-0.0434959
-0.0439746
-0.0444568
-0.0449399
-0.0454286
-0.0459199
-0.0464148