/*--------------------------------*- C++ -*----------------------------------*\
| =========                 |                                                 |
| \\      /  F ield         | OpenFOAM: The Open Source CFD Toolbox           |
|  \\    /   O peration     | Version:  v2012                                 |
|   \\  /    A nd           | Website:  www.openfoam.com                      |
|    \\/     M anipulation  |                                                 |
\*---------------------------------------------------------------------------*/
FoamFile
{
    version     2.0;
    format      ascii;
    class       surfaceScalarField;
    location    "0.8";
    object      phi;
}
// * * * * * * * * * * * * * * * * * * * * * * * * * * * * * * * * * * * * * //

dimensions      [0 3 -1 0 0 0 0];
oriented        oriented;


internalField   nonuniform List<scalar> 
17340
(
3.87608e-06
-1.25624e-07
3.88384e-06
9.15171e-08
3.87655e-06
-8.08919e-08
3.88497e-06
6.51289e-08
3.87761e-06
-5.33077e-08
3.88757e-06
3.94466e-08
3.88009e-06
-3.6214e-08
3.88895e-06
2.63002e-08
3.88326e-06
-2.49894e-08
3.88979e-06
1.86675e-08
3.88302e-06
-1.64348e-08
3.88648e-06
1.51532e-08
3.88274e-06
-9.63411e-09
3.88503e-06
1.00171e-08
3.8827e-06
-5.0786e-09
3.88487e-06
4.7311e-09
3.88121e-06
1.51395e-10
3.8761e-06
8.45928e-09
3.86262e-06
1.83197e-08
2.66836e-08
3.84728e-06
4.17965e-06
-1.19417e-07
4.19295e-06
7.82205e-08
4.18257e-06
-7.05134e-08
4.19382e-06
5.38809e-08
4.18461e-06
-4.40953e-08
4.19575e-06
2.82984e-08
4.18779e-06
-2.82509e-08
4.19596e-06
1.81333e-08
4.19225e-06
-2.12822e-08
4.1938e-06
1.71217e-08
4.19448e-06
-1.71229e-08
4.19454e-06
1.50937e-08
4.19494e-06
-1.00345e-08
4.19385e-06
1.1108e-08
4.19547e-06
-6.69563e-09
4.19199e-06
8.21563e-09
4.19383e-06
-1.69734e-09
4.18291e-06
1.93793e-08
4.17819e-06
2.30424e-08
4.49262e-08
4.15995e-06
4.51285e-06
-1.12202e-07
4.52498e-06
6.60838e-08
4.51399e-06
-5.9516e-08
4.52388e-06
4.39861e-08
4.51506e-06
-3.52684e-08
4.52496e-06
1.83965e-08
4.51747e-06
-2.07654e-08
4.52552e-06
1.00817e-08
4.52054e-06
-1.62999e-08
4.52514e-06
1.25195e-08
4.5215e-06
-1.34765e-08
4.52289e-06
1.37008e-08
4.52203e-06
-9.17499e-09
4.52112e-06
1.20199e-08
4.52262e-06
-8.19865e-09
4.52281e-06
8.0259e-09
4.52434e-06
-3.22162e-09
4.51098e-06
3.27307e-08
4.49486e-06
3.91673e-08
6.11099e-08
4.47868e-06
4.87376e-06
-1.05017e-07
4.88562e-06
5.4231e-08
4.8737e-06
-4.75977e-08
4.88386e-06
3.38202e-08
4.87395e-06
-2.53507e-08
4.88545e-06
6.89322e-09
4.87462e-06
-9.93866e-09
4.88874e-06
-4.03404e-09
4.87515e-06
-2.71584e-09
4.89203e-06
-4.35711e-09
4.87651e-06
2.04642e-09
4.89414e-06
-3.93447e-09
4.87821e-06
6.75523e-09
4.89138e-06
-1.14994e-09
4.87474e-06
8.44621e-09
4.88485e-06
-2.08538e-09
4.87872e-06
2.90325e-09
4.93056e-06
-1.91085e-08
4.98234e-06
-1.26133e-08
-5.384e-09
5.04884e-06
5.26326e-06
-9.76339e-08
5.27547e-06
4.20251e-08
5.26397e-06
-3.6101e-08
5.27245e-06
2.53438e-08
5.26557e-06
-1.84679e-08
5.26916e-06
3.29784e-09
5.2691e-06
-9.87719e-09
5.26936e-06
-4.29558e-09
5.26923e-06
-2.58655e-09
5.26994e-06
-5.06627e-09
5.26941e-06
2.57784e-09
5.26795e-06
-2.47145e-09
5.26842e-06
6.2855e-09
5.26646e-06
8.03061e-10
5.26891e-06
6.00374e-09
5.26799e-06
-1.16607e-09
5.26668e-06
4.2134e-09
5.2542e-06
-6.62754e-09
5.23921e-06
2.36927e-09
1.27422e-08
5.22109e-06
5.68373e-06
-8.99025e-08
5.69672e-06
2.90321e-08
5.68466e-06
-2.40419e-08
5.69347e-06
1.65354e-08
5.68622e-06
-1.12198e-08
5.68936e-06
1.6059e-10
5.69003e-06
-1.05481e-08
5.68836e-06
-2.63005e-09
5.6932e-06
-7.42379e-09
5.6889e-06
-7.64382e-10
5.69448e-06
-3.00569e-09
5.68704e-06
4.96976e-09
5.69025e-06
3.07352e-09
5.68491e-06
6.14962e-09
5.68854e-06
2.3707e-09
5.68208e-06
5.29529e-09
5.68637e-06
-7.42864e-11
5.67536e-06
4.3795e-09
5.67193e-06
5.80327e-09
2.8204e-08
5.65646e-06
6.13795e-06
-8.19864e-08
6.1511e-06
1.58907e-08
6.14193e-06
-1.48745e-08
6.14727e-06
1.11974e-08
6.14308e-06
-7.0327e-09
6.14177e-06
1.47165e-09
6.14243e-06
-1.12133e-08
6.14403e-06
-4.23035e-09
6.14084e-06
-4.2258e-09
6.14403e-06
-3.95961e-09
6.1413e-06
-2.78754e-10
6.14206e-06
4.20884e-09
6.13994e-06
5.19854e-09
6.14064e-06
5.45189e-09
6.13852e-06
4.48607e-09
6.13862e-06
5.19638e-09
6.13422e-06
4.33047e-09
6.12955e-06
9.04332e-09
6.12154e-06
1.38185e-08
3.16195e-08
6.11812e-06
6.62875e-06
-7.41789e-08
6.6408e-06
3.84417e-09
6.63833e-06
-1.24014e-08
6.63644e-06
1.30835e-08
6.63875e-06
-9.33972e-09
6.63051e-06
9.71443e-09
6.63661e-06
-1.73147e-08
6.63114e-06
1.2376e-09
6.63493e-06
-8.01726e-09
6.63111e-06
-1.42324e-10
6.63266e-06
-1.82557e-09
6.62971e-06
7.15822e-09
6.63106e-06
3.84862e-09
6.62885e-06
7.65818e-09
6.62865e-06
4.6868e-09
6.62609e-06
7.75822e-09
6.62316e-06
7.25962e-09
6.61878e-06
1.34222e-08
6.61293e-06
1.96752e-08
3.35569e-08
6.61099e-06
7.15848e-06
-6.6224e-08
7.17174e-06
-9.42438e-09
7.16578e-06
-6.43493e-09
7.17147e-06
7.39182e-09
7.15707e-06
5.05473e-09
7.17217e-06
-5.37833e-09
7.16053e-06
-5.67562e-09
7.1678e-06
-6.03248e-09
7.1659e-06
-6.11508e-09
7.16342e-06
2.3346e-09
7.15955e-06
2.04395e-09
7.15993e-06
6.77713e-09
7.15871e-06
5.06776e-09
7.15806e-06
8.30869e-09
7.15632e-06
6.42971e-09
7.15443e-06
9.64901e-09
7.15124e-06
1.04516e-08
7.14772e-06
1.69406e-08
7.14417e-06
2.32194e-08
3.4556e-08
7.14317e-06
7.73119e-06
-5.88151e-08
7.74084e-06
-1.90651e-08
7.74292e-06
-8.52334e-09
7.73991e-06
1.04014e-08
7.73867e-06
6.29527e-09
7.73836e-06
-5.06133e-09
7.73157e-06
1.11011e-09
7.73152e-06
-5.98045e-09
7.73373e-06
-8.32973e-09
7.73217e-06
3.89798e-09
7.73071e-06
3.50336e-09
7.7304e-06
7.08984e-09
7.72952e-06
5.94238e-09
7.72886e-06
8.96775e-09
7.72687e-06
8.41996e-09
7.7251e-06
1.14282e-08
7.72212e-06
1.34312e-08
7.71943e-06
1.96239e-08
7.71698e-06
2.56704e-08
3.51843e-08
7.71635e-06
8.34933e-06
-5.16858e-08
8.35896e-06
-2.86907e-08
8.36163e-06
-1.11983e-08
8.35786e-06
1.4171e-08
8.36242e-06
1.73532e-09
8.34944e-06
7.91906e-09
8.35558e-06
-5.02629e-09
8.35266e-06
-3.06376e-09
8.34864e-06
-4.30582e-09
8.34911e-06
3.42989e-09
8.34816e-06
4.4449e-09
8.34714e-06
8.11761e-09
8.34597e-06
7.10953e-09
8.34516e-06
9.77907e-09
8.34338e-06
1.01972e-08
8.34154e-06
1.32736e-08
8.33906e-06
1.59097e-08
8.33695e-06
2.17327e-08
8.33523e-06
2.7388e-08
3.53312e-08
8.33508e-06
9.01695e-06
-4.49916e-08
9.02533e-06
-3.70635e-08
9.02595e-06
-1.18268e-08
9.02886e-06
1.12684e-08
9.02383e-06
6.75754e-09
9.01884e-06
1.29182e-08
9.02064e-06
-6.82819e-09
9.01848e-06
-9.06539e-10
9.01417e-06
4.16058e-12
9.01414e-06
3.46199e-09
9.01407e-06
4.51211e-09
9.0134e-06
8.7911e-09
9.01192e-06
8.58542e-09
9.01093e-06
1.077e-08
9.00931e-06
1.18157e-08
9.00759e-06
1.50005e-08
9.00554e-06
1.79594e-08
9.00396e-06
2.33059e-08
9.00284e-06
2.85109e-08
3.52915e-08
9.00288e-06
9.73804e-06
-3.89333e-08
9.73952e-06
-3.85367e-08
9.7451e-06
-1.74054e-08
9.75116e-06
5.20111e-09
9.74647e-06
1.14536e-08
9.74632e-06
1.30674e-08
9.73887e-06
6.19664e-10
9.73663e-06
1.3374e-09
9.73485e-06
1.78198e-09
9.73373e-06
4.57974e-09
9.73289e-06
5.35118e-09
9.73262e-06
9.06136e-09
9.73129e-06
9.91505e-09
9.73015e-06
1.19138e-08
9.72863e-06
1.33324e-08
9.72714e-06
1.64954e-08
9.72545e-06
1.96507e-08
9.72437e-06
2.43801e-08
9.72397e-06
2.89085e-08
3.41406e-08
9.72512e-06
1.05168e-05
-3.3615e-08
1.05149e-05
-3.66734e-08
1.05225e-05
-2.5019e-08
1.05267e-05
1.03378e-09
1.05273e-05
1.07965e-08
1.0525e-05
1.54269e-08
1.05162e-05
9.354e-09
1.05138e-05
3.76675e-09
1.05131e-05
2.52127e-09
1.05113e-05
6.39439e-09
1.05096e-05
6.98437e-09
1.05091e-05
9.56776e-09
1.05082e-05
1.08805e-08
1.0507e-05
1.30277e-08
1.05057e-05
1.46974e-08
1.05044e-05
1.77949e-08
1.05031e-05
2.09285e-08
1.05025e-05
2.50202e-08
1.05023e-05
2.90822e-08
3.33729e-08
1.05031e-05
1.13572e-05
-2.86846e-08
1.13543e-05
-3.3735e-08
1.13591e-05
-2.98314e-08
1.13644e-05
-4.2466e-09
1.13674e-05
7.82543e-09
1.13664e-05
1.64001e-08
1.13592e-05
1.65305e-08
1.13536e-05
9.40713e-09
1.13514e-05
4.65862e-09
1.13506e-05
7.27655e-09
1.1349e-05
8.53426e-09
1.13479e-05
1.06727e-08
1.13471e-05
1.17179e-08
1.13461e-05
1.40197e-08
1.13449e-05
1.58361e-08
1.13439e-05
1.88553e-08
1.1343e-05
2.1767e-08
1.13427e-05
2.53427e-08
1.13428e-05
2.8963e-08
3.38108e-08
1.13424e-05
1.22647e-05
-2.40822e-08
1.22636e-05
-3.26106e-08
1.22611e-05
-2.73444e-08
1.22679e-05
-1.10274e-08
1.22722e-05
3.56541e-09
1.22747e-05
1.38979e-08
1.22703e-05
2.08472e-08
1.22622e-05
1.75948e-08
1.22572e-05
9.58057e-09
1.22561e-05
8.43537e-09
1.22552e-05
9.403e-09
1.22541e-05
1.17579e-08
1.22531e-05
1.2741e-08
1.22523e-05
1.48503e-08
1.22513e-05
1.67597e-08
1.22506e-05
1.95881e-08
1.22502e-05
2.22221e-08
1.22502e-05
2.53251e-08
1.22508e-05
2.83458e-08
3.10373e-08
1.22536e-05
1.32448e-05
-1.99676e-08
1.3243e-05
-3.07861e-08
1.32398e-05
-2.41111e-08
1.32424e-05
-1.36504e-08
1.32469e-05
-9.62122e-10
1.32501e-05
1.07382e-08
1.32512e-05
1.97003e-08
1.32449e-05
2.39204e-08
1.32377e-05
1.67672e-08
1.32343e-05
1.18174e-08
1.32332e-05
1.05304e-08
1.32327e-05
1.22478e-08
1.32318e-05
1.36773e-08
1.3231e-05
1.56111e-08
1.32303e-05
1.74321e-08
1.32299e-05
2.00176e-08
1.32299e-05
2.22644e-08
1.32302e-05
2.49611e-08
1.32311e-05
2.74793e-08
3.08282e-08
1.32313e-05
1.43032e-05
-1.64481e-08
1.42986e-05
-2.62128e-08
1.42974e-05
-2.28913e-08
1.42964e-05
-1.26709e-08
1.42982e-05
-2.71454e-09
1.43002e-05
8.7012e-09
1.43037e-05
1.62283e-08
1.43035e-05
2.41286e-08
1.42975e-05
2.27256e-08
1.42922e-05
1.72032e-08
1.42897e-05
1.2951e-08
1.42891e-05
1.29078e-08
1.42886e-05
1.41104e-08
1.42881e-05
1.6128e-08
1.42877e-05
1.78562e-08
1.42876e-05
2.0113e-08
1.42879e-05
2.19715e-08
1.42886e-05
2.42188e-08
1.429e-05
2.61664e-08
2.77256e-08
1.42931e-05
1.54459e-05
-1.3377e-08
1.54405e-05
-2.07788e-08
1.54389e-05
-2.12602e-08
1.54371e-05
-1.09249e-08
1.54366e-05
-2.20751e-09
1.5437e-05
8.27855e-09
1.54383e-05
1.4975e-08
1.54409e-05
2.14798e-08
1.54396e-05
2.40784e-08
1.54353e-05
2.15219e-08
1.54317e-05
1.6556e-08
1.54302e-05
1.44059e-08
1.54297e-05
1.45436e-08
1.54296e-05
1.62457e-08
1.54296e-05
1.7891e-08
1.54298e-05
1.98507e-08
1.54304e-05
2.13736e-08
1.54316e-05
2.30961e-08
1.54331e-05
2.46007e-08
2.67827e-08
1.54341e-05
1.66796e-05
-1.05416e-08
1.66753e-05
-1.64834e-08
1.66712e-05
-1.71085e-08
1.66692e-05
-8.99482e-09
1.66677e-05
-6.75861e-10
1.66673e-05
8.72632e-09
1.66669e-05
1.53341e-08
1.66683e-05
2.0124e-08
1.66696e-05
2.27715e-08
1.66682e-05
2.29347e-08
1.66653e-05
1.94461e-08
1.6663e-05
1.66531e-08
1.66622e-05
1.53855e-08
1.66622e-05
1.6215e-08
1.66626e-05
1.75334e-08
1.66633e-05
1.91448e-08
1.66642e-05
2.04393e-08
1.66657e-05
2.16094e-08
1.66676e-05
2.26494e-08
2.33137e-08
1.66711e-05
1.80118e-05
-7.93805e-09
1.8008e-05
-1.26934e-08
1.80029e-05
-1.19917e-08
1.8e-05
-6.06839e-09
1.79981e-05
1.16913e-09
1.79972e-05
9.67587e-09
1.79964e-05
1.60672e-08
1.79964e-05
2.01789e-08
1.79974e-05
2.17998e-08
1.79978e-05
2.24862e-08
1.79964e-05
2.08126e-08
1.79946e-05
1.84487e-08
1.79935e-05
1.65709e-08
1.79934e-05
1.6312e-08
1.7994e-05
1.68869e-08
1.79951e-05
1.80758e-08
1.79965e-05
1.90413e-08
1.79983e-05
1.97994e-08
1.80004e-05
2.05114e-08
2.13327e-08
1.80024e-05
1.94503e-05
-5.55815e-09
1.94458e-05
-8.14951e-09
1.94414e-05
-7.58859e-09
1.94376e-05
-2.33285e-09
1.94351e-05
3.6495e-09
1.94338e-05
1.10529e-08
1.94329e-05
1.68834e-08
1.94324e-05
2.07127e-08
1.94325e-05
2.16656e-08
1.9433e-05
2.2061e-08
1.94329e-05
2.08868e-08
1.9432e-05
1.93612e-08
1.94312e-05
1.74014e-08
1.9431e-05
1.64483e-08
1.94317e-05
1.61651e-08
1.94332e-05
1.66669e-08
1.9435e-05
1.72331e-08
1.94372e-05
1.76065e-08
1.94397e-05
1.79922e-08
1.80725e-08
1.94429e-05
2.10037e-05
-3.40988e-09
2.09996e-05
-4.13811e-09
2.09948e-05
-2.78293e-09
2.09906e-05
1.86917e-09
2.09873e-05
7.02173e-09
2.09854e-05
1.29658e-08
2.09844e-05
1.78492e-08
2.09838e-05
2.12981e-08
2.09833e-05
2.21189e-08
2.09834e-05
2.19725e-08
2.09835e-05
2.08501e-08
2.09834e-05
1.93879e-08
2.09832e-05
1.7649e-08
2.09834e-05
1.62555e-08
2.09842e-05
1.53201e-08
2.09858e-05
1.50593e-08
2.0988e-05
1.50702e-08
2.09906e-05
1.49982e-08
2.09936e-05
1.4989e-08
1.48128e-08
2.09969e-05
2.26809e-05
-1.42383e-09
2.26773e-05
-4.55832e-10
2.26723e-05
2.13359e-09
2.26676e-05
6.5826e-09
2.26638e-05
1.08811e-08
2.26612e-05
1.55327e-08
2.26598e-05
1.92185e-08
2.26591e-05
2.20035e-08
2.26584e-05
2.27994e-08
2.26581e-05
2.23029e-08
2.2658e-05
2.09576e-08
2.26582e-05
1.92e-08
2.26586e-05
1.72424e-08
2.26593e-05
1.55613e-08
2.26604e-05
1.41868e-08
2.26622e-05
1.32476e-08
2.26647e-05
1.25808e-08
2.26677e-05
1.20227e-08
2.26711e-05
1.16422e-08
1.12665e-08
2.26746e-05
2.4492e-05
5.17921e-10
2.44878e-05
3.71055e-09
2.4483e-05
6.99475e-09
2.44784e-05
1.11281e-08
2.44743e-05
1.49814e-08
2.44713e-05
1.86068e-08
2.44692e-05
2.12781e-08
2.44682e-05
2.3018e-08
2.44674e-05
2.36084e-08
2.44667e-05
2.29689e-08
2.44663e-05
2.13261e-08
2.44664e-05
1.91254e-08
2.44671e-05
1.65478e-08
2.44683e-05
1.43494e-08
2.44698e-05
1.26597e-08
2.4472e-05
1.10884e-08
2.44748e-05
9.75791e-09
2.44781e-05
8.72031e-09
2.44819e-05
7.90792e-09
7.39219e-09
2.44857e-05
2.64477e-05
2.41407e-09
2.64435e-05
7.86988e-09
2.64384e-05
1.20855e-08
2.64338e-05
1.57638e-08
2.64294e-05
1.93832e-08
2.64259e-05
2.20422e-08
2.64232e-05
2.39796e-08
2.64216e-05
2.47047e-08
2.64205e-05
2.46485e-08
2.64197e-05
2.38271e-08
2.64191e-05
2.19272e-08
2.64188e-05
1.93557e-08
2.64193e-05
1.61143e-08
2.64205e-05
1.30885e-08
2.64226e-05
1.05367e-08
2.64254e-05
8.343e-09
2.64286e-05
6.51546e-09
2.64323e-05
5.02122e-09
2.64364e-05
3.8385e-09
2.91796e-09
2.64409e-05
2.85594e-05
4.32158e-09
2.85555e-05
1.17622e-08
2.85501e-05
1.74677e-08
2.85451e-05
2.07828e-08
2.85406e-05
2.39261e-08
2.85367e-05
2.59093e-08
2.85334e-05
2.73235e-08
2.85309e-05
2.72103e-08
2.8529e-05
2.65338e-08
2.85281e-05
2.4743e-08
2.85277e-05
2.2318e-08
2.85273e-05
1.97355e-08
2.85272e-05
1.62307e-08
2.85277e-05
1.25542e-08
2.85292e-05
9.07557e-09
2.85316e-05
5.86364e-09
2.85351e-05
3.04508e-09
2.85396e-05
5.16197e-10
2.85445e-05
-1.00785e-09
-2.11777e-09
2.85495e-05
3.08397e-05
6.27813e-09
3.08355e-05
1.60154e-08
3.08304e-05
2.25533e-08
3.0825e-05
2.61643e-08
3.08202e-05
2.87116e-08
3.08161e-05
3.00651e-08
3.08124e-05
3.09919e-08
3.08087e-05
3.08769e-08
3.08054e-05
2.99011e-08
3.08033e-05
2.68119e-08
3.08022e-05
2.34485e-08
3.08023e-05
1.95557e-08
3.08032e-05
1.53315e-08
3.08048e-05
1.10276e-08
3.08069e-05
6.96519e-09
3.08094e-05
3.3295e-09
3.08121e-05
3.92135e-10
3.08159e-05
-3.2999e-09
3.08207e-05
-5.87944e-09
-7.79863e-09
3.08264e-05
3.3302e-05
8.3789e-09
3.32982e-05
1.98123e-08
3.32925e-05
2.82744e-08
3.32871e-05
3.15521e-08
3.32815e-05
3.42841e-08
3.32769e-05
3.46497e-08
3.32729e-05
3.50433e-08
3.32696e-05
3.41295e-08
3.32658e-05
3.37815e-08
3.32618e-05
3.07221e-08
3.32582e-05
2.7097e-08
3.32553e-05
2.24286e-08
3.32532e-05
1.74774e-08
3.32524e-05
1.17808e-08
3.32535e-05
5.91866e-09
3.32573e-05
-4.99947e-10
3.3262e-05
-4.25844e-09
3.32668e-05
-8.15344e-09
3.32724e-05
-1.14405e-08
-1.39891e-08
3.32786e-05
3.59607e-05
1.0838e-08
3.59582e-05
2.22511e-08
3.5952e-05
3.44602e-08
3.59468e-05
3.67535e-08
3.59398e-05
4.13772e-08
3.59333e-05
4.11045e-08
3.59268e-05
4.15612e-08
3.59225e-05
3.84548e-08
3.59192e-05
3.70491e-08
3.59169e-05
3.29692e-08
3.59147e-05
2.93337e-08
3.59132e-05
2.38896e-08
3.59119e-05
1.88395e-08
3.5911e-05
1.26696e-08
3.59099e-05
7.03319e-09
3.59082e-05
1.21593e-09
3.59102e-05
-6.29162e-09
3.59151e-05
-1.30393e-08
3.59201e-05
-1.64349e-08
-2.02656e-08
3.59264e-05
3.88311e-05
1.42163e-08
3.88288e-05
2.45622e-08
3.88241e-05
3.91176e-08
3.88198e-05
4.10363e-08
3.88142e-05
4.70421e-08
3.88076e-05
4.76864e-08
3.87992e-05
4.9967e-08
3.87913e-05
4.63141e-08
3.8783e-05
4.54132e-08
3.87753e-05
4.06532e-08
3.87669e-05
3.77047e-08
3.87594e-05
3.1358e-08
3.87526e-05
2.57077e-08
3.87481e-05
1.71585e-08
3.87461e-05
9.028e-09
3.87483e-05
-1.03533e-09
3.87495e-05
-7.47605e-09
3.87547e-05
-1.82242e-08
3.87652e-05
-2.6983e-08
-3.53558e-08
3.87803e-05
4.19305e-05
1.87488e-08
4.19365e-05
1.85581e-08
4.19229e-05
5.27062e-08
4.19155e-05
4.84812e-08
4.18998e-05
6.27266e-08
4.18987e-05
4.88183e-08
4.18943e-05
5.43501e-08
4.18949e-05
4.56476e-08
4.18907e-05
4.96707e-08
4.18878e-05
4.35521e-08
4.18803e-05
4.51657e-08
4.18739e-05
3.77901e-08
4.1865e-05
3.45677e-08
4.18569e-05
2.52798e-08
4.18457e-05
2.0246e-08
4.18327e-05
1.19335e-08
4.18184e-05
6.84183e-09
4.18029e-05
-2.7149e-09
4.1788e-05
-1.21312e-08
-2.7705e-08
4.17804e-05
4.52831e-05
1.88562e-08
4.52792e-05
2.24565e-08
4.52784e-05
5.34114e-08
4.52758e-05
5.11391e-08
4.52671e-05
7.14141e-08
4.5254e-05
6.19179e-08
4.52401e-05
6.82472e-08
4.52267e-05
5.90366e-08
4.52115e-05
6.48767e-08
4.5196e-05
5.90609e-08
4.51796e-05
6.15949e-08
4.51648e-05
5.25653e-08
4.51513e-05
4.80451e-08
4.51402e-05
3.64222e-08
4.51305e-05
2.98836e-08
4.51238e-05
1.87117e-08
4.51232e-05
7.40587e-09
4.51253e-05
-4.85671e-09
4.514e-05
-2.67867e-08
-6.47237e-08
4.5177e-05
4.88971e-05
2.03542e-08
4.88733e-05
4.62873e-08
4.88616e-05
6.50411e-08
4.8848e-05
6.4834e-08
4.8855e-05
6.43793e-08
4.88588e-05
5.81075e-08
4.88749e-05
5.21689e-08
4.88907e-05
4.31841e-08
4.8921e-05
3.45737e-08
4.89565e-05
2.35777e-08
4.90043e-05
1.38282e-08
4.90521e-05
4.7929e-09
4.91035e-05
-3.36275e-09
4.9154e-05
-1.40728e-08
4.92049e-05
-2.10126e-08
4.92497e-05
-2.61319e-08
4.92811e-05
-2.39909e-08
4.93021e-05
-2.58635e-08
4.93019e-05
-2.66038e-08
-2.29809e-08
4.92602e-05
5.28089e-05
1.41996e-08
5.28217e-05
3.34553e-08
5.28339e-05
5.28437e-08
5.28283e-05
7.03815e-08
5.28108e-05
8.19493e-08
5.27843e-05
8.4535e-08
5.27515e-05
8.50557e-08
5.27168e-05
7.78505e-08
5.26833e-05
6.80669e-08
5.26537e-05
5.31797e-08
5.26286e-05
3.89018e-08
5.26092e-05
2.42064e-08
5.25935e-05
1.23874e-08
5.25795e-05
-7.19892e-11
5.25655e-05
-7.08285e-09
5.25602e-05
-2.07882e-08
5.25717e-05
-3.54692e-08
5.25972e-05
-5.14105e-08
5.26386e-05
-6.80384e-08
-8.73788e-08
5.2703e-05
5.70104e-05
2.23639e-08
5.69904e-05
5.33718e-08
5.69732e-05
7.00388e-08
5.69766e-05
6.70236e-08
5.69929e-05
6.56261e-08
5.70184e-05
5.90806e-08
5.70538e-05
4.96613e-08
5.70935e-05
3.80779e-08
5.7134e-05
2.76046e-08
5.71689e-05
1.82916e-08
5.71973e-05
1.04837e-08
5.72182e-05
3.30907e-09
5.72374e-05
-6.80266e-09
5.72548e-05
-1.74449e-08
5.72726e-05
-2.49251e-08
5.7277e-05
-2.51896e-08
5.72696e-05
-2.80846e-08
5.7248e-05
-2.97585e-08
5.72098e-05
-2.98604e-08
-2.8258e-08
5.71507e-05
6.15809e-05
1.2428e-08
6.16007e-05
3.35536e-08
6.16137e-05
5.70372e-08
6.16014e-05
7.93417e-08
6.15736e-05
9.33825e-08
6.15345e-05
9.81601e-08
6.14871e-05
9.70633e-08
6.14375e-05
8.76977e-08
6.13896e-05
7.54694e-08
6.13467e-05
6.12345e-08
6.13087e-05
4.84442e-08
6.1277e-05
3.50499e-08
6.12486e-05
2.15779e-08
6.1225e-05
6.15714e-09
6.12082e-05
-8.08919e-09
6.12094e-05
-2.63803e-08
6.12248e-05
-4.35158e-08
6.12559e-05
-6.08415e-08
6.13038e-05
-7.77973e-08
-9.62038e-08
6.13718e-05
6.64791e-05
2.01649e-08
6.64686e-05
4.40193e-08
6.64709e-05
5.47e-08
6.64921e-05
5.82081e-08
6.65227e-05
6.27123e-08
6.65571e-05
6.376e-08
6.65887e-05
6.5503e-08
6.66128e-05
6.36365e-08
6.6628e-05
6.02546e-08
6.66355e-05
5.37118e-08
6.66372e-05
4.67017e-08
6.66348e-05
3.75349e-08
6.66287e-05
2.76683e-08
6.66186e-05
1.62315e-08
6.66045e-05
6.0173e-09
6.65853e-05
-7.23557e-09
6.65591e-05
-1.72563e-08
6.65242e-05
-2.59669e-08
6.64787e-05
-3.23004e-08
-3.59667e-08
6.64185e-05
7.18027e-05
1.26547e-08
7.18314e-05
1.52678e-08
7.18413e-05
4.48403e-08
7.18462e-05
5.33284e-08
7.183e-05
7.8916e-08
7.18037e-05
9.00647e-08
7.17563e-05
1.12837e-07
7.16978e-05
1.22181e-07
7.16233e-05
1.34702e-07
7.15446e-05
1.32427e-07
7.14625e-05
1.28848e-07
7.13859e-05
1.14067e-07
7.13148e-05
9.87716e-08
7.12602e-05
7.08534e-08
7.12165e-05
4.9742e-08
7.11822e-05
2.7078e-08
7.11573e-05
7.65197e-09
7.11537e-05
-2.23792e-08
7.11776e-05
-5.61772e-08
-9.59866e-08
7.12376e-05
7.75255e-05
7.75542e-05
7.75851e-05
7.76263e-05
7.7657e-05
7.76842e-05
7.76957e-05
7.76991e-05
7.76864e-05
7.76639e-05
7.76273e-05
7.75821e-05
7.75181e-05
7.74399e-05
7.73551e-05
7.72732e-05
7.71986e-05
7.71321e-05
7.70782e-05
7.70214e-05
3.81947e-06
2.78051e-08
3.78472e-06
3.47543e-08
3.74796e-06
3.67613e-08
3.70488e-06
4.30814e-08
3.656e-06
4.88809e-08
3.60489e-06
5.111e-08
3.55476e-06
5.01235e-08
3.50707e-06
4.76957e-08
3.46135e-06
4.57153e-08
3.4162e-06
4.5154e-08
3.37037e-06
4.58232e-08
3.3236e-06
4.67709e-08
3.27601e-06
4.75895e-08
3.22773e-06
4.82803e-08
3.17884e-06
4.88973e-08
3.12936e-06
4.94753e-08
3.07932e-06
5.00403e-08
3.02872e-06
5.06013e-08
2.97757e-06
5.11498e-08
2.9259e-06
5.16683e-08
2.87376e-06
5.21437e-08
2.82118e-06
5.25754e-08
2.76822e-06
5.29661e-08
2.71489e-06
5.33301e-08
2.66121e-06
5.36735e-08
2.6072e-06
5.40142e-08
2.55285e-06
5.43503e-08
2.49815e-06
5.4696e-08
2.44311e-06
5.50384e-08
2.38772e-06
5.53904e-08
2.33199e-06
5.5734e-08
2.27591e-06
5.60821e-08
2.21949e-06
5.64148e-08
2.16275e-06
5.67392e-08
2.10571e-06
5.70408e-08
2.04839e-06
5.73176e-08
1.99083e-06
5.75603e-08
1.93307e-06
5.77593e-08
1.87518e-06
5.78967e-08
1.8172e-06
5.79761e-08
1.75925e-06
5.79489e-08
1.70141e-06
5.78452e-08
1.64382e-06
5.75906e-08
1.58661e-06
5.72072e-08
1.52995e-06
5.66606e-08
1.47407e-06
5.58794e-08
1.41918e-06
5.48942e-08
1.36559e-06
5.35887e-08
1.3136e-06
5.19847e-08
1.26359e-06
5.00169e-08
1.21601e-06
4.75787e-08
1.17124e-06
4.47701e-08
1.12971e-06
4.15314e-08
1.09173e-06
3.79791e-08
1.05765e-06
3.40721e-08
1.0276e-06
3.00489e-08
1.00152e-06
2.60827e-08
9.79356e-07
2.21661e-08
9.60725e-07
1.86311e-08
9.45332e-07
1.5393e-08
9.32824e-07
1.25081e-08
9.22634e-07
1.01899e-08
9.1445e-07
8.18415e-09
9.07817e-07
6.63295e-09
9.0237e-07
5.44666e-09
8.97844e-07
4.52605e-09
8.93956e-07
3.88814e-09
8.90514e-07
3.44154e-09
8.87297e-07
3.21745e-09
8.84121e-07
3.17648e-09
8.80949e-07
3.17135e-09
8.77644e-07
3.3047e-09
8.74093e-07
3.5512e-09
8.70288e-07
3.80561e-09
8.66327e-07
3.96024e-09
8.62226e-07
4.10102e-09
8.58036e-07
4.19045e-09
8.53754e-07
4.28178e-09
8.49394e-07
4.35993e-09
8.4492e-07
4.47437e-09
8.40308e-07
4.61231e-09
8.35543e-07
4.76459e-09
8.30655e-07
4.88836e-09
8.25659e-07
4.99571e-09
8.20621e-07
5.0382e-09
8.15581e-07
5.04005e-09
8.10606e-07
4.97432e-09
8.0573e-07
4.87603e-09
8.00958e-07
4.7727e-09
7.96237e-07
4.72021e-09
7.9151e-07
4.727e-09
7.86736e-07
4.7744e-09
7.81912e-07
4.8235e-09
7.77093e-07
4.81934e-09
7.72376e-07
4.71674e-09
7.67796e-07
4.58031e-09
7.63377e-07
4.41951e-09
7.59037e-07
4.33926e-09
7.54696e-07
4.34096e-09
7.50308e-07
4.38845e-09
7.45906e-07
4.40225e-09
7.41539e-07
4.36698e-09
7.37335e-07
4.20413e-09
7.33252e-07
4.08288e-09
7.29288e-07
3.96331e-09
7.25341e-07
3.94733e-09
7.21394e-07
3.9473e-09
7.17443e-07
3.95045e-09
7.13587e-07
3.85671e-09
7.09822e-07
3.76416e-09
7.06216e-07
3.60623e-09
7.02649e-07
3.56721e-09
6.99148e-07
3.50084e-09
6.95679e-07
3.46903e-09
6.9225e-07
3.42957e-09
6.88871e-07
3.37828e-09
6.85669e-07
3.20266e-09
6.8253e-07
3.13826e-09
6.79494e-07
3.03656e-09
6.76497e-07
2.99718e-09
6.73564e-07
2.93222e-09
6.70678e-07
2.88608e-09
6.67941e-07
2.73779e-09
6.65239e-07
2.70129e-09
6.62725e-07
2.51469e-09
6.60252e-07
2.47254e-09
6.57765e-07
2.48654e-09
6.55278e-07
2.48708e-09
6.53085e-07
2.19364e-09
6.51005e-07
2.07952e-09
6.49028e-07
1.97747e-09
6.46951e-07
2.07719e-09
6.44852e-07
2.09863e-09
6.42878e-07
1.97383e-09
6.41322e-07
1.55661e-09
6.39725e-07
1.59606e-09
6.38007e-07
1.71828e-09
6.3634e-07
1.66728e-09
6.35009e-07
1.33061e-09
6.33609e-07
1.40041e-09
6.32235e-07
1.37425e-09
6.30882e-07
1.35299e-09
6.29759e-07
1.12226e-09
6.28578e-07
1.18145e-09
6.27525e-07
1.053e-09
6.26442e-07
1.0825e-09
6.25533e-07
9.08937e-10
6.24559e-07
9.74334e-10
6.23734e-07
8.25425e-10
6.22862e-07
8.71369e-10
6.2215e-07
7.12606e-10
6.21349e-07
8.01014e-10
6.20718e-07
6.30372e-10
6.20017e-07
7.01601e-10
6.1948e-07
5.37198e-10
6.1882e-07
6.59479e-10
6.18355e-07
4.65094e-10
6.17782e-07
5.72499e-10
6.17395e-07
3.87441e-10
6.16872e-07
5.2264e-10
6.16547e-07
3.25754e-10
6.16078e-07
4.68191e-10
6.15801e-07
2.7714e-10
6.15374e-07
4.27111e-10
6.15161e-07
2.13456e-10
6.14779e-07
3.81713e-10
6.14615e-07
1.64168e-10
6.14262e-07
3.53329e-10
6.14139e-07
1.23037e-10
6.13812e-07
3.26307e-10
6.13724e-07
8.81681e-11
6.13422e-07
3.02309e-10
6.1337e-07
5.189e-11
6.13086e-07
2.83521e-10
6.13073e-07
1.35878e-11
6.12799e-07
2.73385e-10
6.12819e-07
-1.98299e-11
6.1255e-07
2.69282e-10
6.12595e-07
-4.53018e-11
6.12326e-07
2.69619e-10
6.1239e-07
-6.46496e-11
6.12107e-07
2.83175e-10
6.12186e-07
-7.93588e-11
6.1187e-07
3.16046e-10
6.11955e-07
-8.4505e-11
6.11582e-07
3.7275e-10
6.1165e-07
-6.82486e-11
6.11189e-07
4.61575e-10
6.11206e-07
-1.67179e-11
6.10596e-07
6.09409e-10
6.105e-07
9.57141e-11
6.09634e-07
8.66597e-10
6.093e-07
3.33673e-10
6.07978e-07
1.32238e-09
6.07092e-07
8.85604e-10
6.04949e-07
2.14304e-09
6.02563e-07
2.38626e-09
5.98877e-07
3.68533e-09
5.92252e-07
6.62597e-09
1.61033e-08
4.16115e-06
2.66044e-08
4.17881e-06
1.70931e-08
4.19e-06
2.55681e-08
4.19092e-06
4.21641e-08
4.18502e-06
5.47818e-08
4.17809e-06
5.80449e-08
4.17244e-06
5.57655e-08
4.16868e-06
5.14575e-08
4.16591e-06
4.8486e-08
4.16302e-06
4.8043e-08
4.15933e-06
4.95137e-08
4.15451e-06
5.15935e-08
4.14863e-06
5.34645e-08
4.14193e-06
5.49831e-08
4.13456e-06
5.62736e-08
4.12657e-06
5.74632e-08
4.11794e-06
5.86666e-08
4.10862e-06
5.9918e-08
4.09857e-06
6.12041e-08
4.08775e-06
6.24904e-08
4.07615e-06
6.37382e-08
4.06379e-06
6.49413e-08
4.05067e-06
6.60848e-08
4.0368e-06
6.72009e-08
4.02219e-06
6.82845e-08
4.00682e-06
6.93823e-08
3.99069e-06
7.04794e-08
3.97377e-06
7.1615e-08
3.95605e-06
7.27612e-08
3.93749e-06
7.39459e-08
3.91809e-06
7.51404e-08
3.8978e-06
7.63636e-08
3.87663e-06
7.75898e-08
3.85454e-06
7.88281e-08
3.83153e-06
8.00558e-08
3.80756e-06
8.12785e-08
3.78266e-06
8.24676e-08
3.75679e-06
8.36311e-08
3.72996e-06
8.47203e-08
3.70218e-06
8.57558e-08
3.67346e-06
8.66673e-08
3.64384e-06
8.7473e-08
3.61332e-06
8.81114e-08
3.58197e-06
8.85483e-08
3.54985e-06
8.87842e-08
3.51705e-06
8.86835e-08
3.48366e-06
8.82773e-08
3.4498e-06
8.74532e-08
3.41566e-06
8.61219e-08
3.38138e-06
8.42946e-08
3.34721e-06
8.17557e-08
3.31333e-06
7.86451e-08
3.28002e-06
7.48427e-08
3.24754e-06
7.04581e-08
3.21604e-06
6.55777e-08
3.18574e-06
6.03403e-08
3.15678e-06
5.50505e-08
3.12917e-06
4.97753e-08
3.10305e-06
4.47503e-08
3.07823e-06
4.02153e-08
3.0547e-06
3.60379e-08
3.03236e-06
3.25294e-08
3.01096e-06
2.95791e-08
2.99046e-06
2.7133e-08
2.9707e-06
2.52114e-08
2.9515e-06
2.37214e-08
2.93283e-06
2.25631e-08
2.91454e-06
2.17316e-08
2.89654e-06
2.12165e-08
2.87877e-06
2.09488e-08
2.86113e-06
2.08064e-08
2.8436e-06
2.08374e-08
2.82612e-06
2.1026e-08
2.80865e-06
2.1277e-08
2.79121e-06
2.13991e-08
2.77384e-06
2.14724e-08
2.75658e-06
2.14533e-08
2.73938e-06
2.14767e-08
2.72229e-06
2.14556e-08
2.70525e-06
2.15154e-08
2.68824e-06
2.16175e-08
2.67125e-06
2.17595e-08
2.65426e-06
2.18799e-08
2.63728e-06
2.19705e-08
2.62038e-06
2.19356e-08
2.60357e-06
2.18539e-08
2.58693e-06
2.1616e-08
2.57048e-06
2.13184e-08
2.55424e-06
2.10167e-08
2.53817e-06
2.07885e-08
2.52223e-06
2.06716e-08
2.50634e-06
2.06643e-08
2.49053e-06
2.06323e-08
2.47481e-06
2.05381e-08
2.45926e-06
2.0265e-08
2.44396e-06
1.98871e-08
2.42891e-06
1.94649e-08
2.41407e-06
1.9178e-08
2.3994e-06
1.90119e-08
2.38482e-06
1.89672e-08
2.37036e-06
1.88618e-08
2.35606e-06
1.86653e-08
2.34201e-06
1.82577e-08
2.3282e-06
1.78926e-08
2.31464e-06
1.75244e-08
2.30123e-06
1.73524e-08
2.28799e-06
1.7193e-08
2.27489e-06
1.70537e-08
2.26201e-06
1.6733e-08
2.24936e-06
1.64119e-08
2.23698e-06
1.59828e-08
2.22482e-06
1.57276e-08
2.21288e-06
1.54467e-08
2.20105e-06
1.52989e-08
2.18942e-06
1.50632e-08
2.17803e-06
1.47626e-08
2.16694e-06
1.42908e-08
2.15607e-06
1.40067e-08
2.14549e-06
1.36224e-08
2.13507e-06
1.34157e-08
2.12483e-06
1.31727e-08
2.11481e-06
1.2907e-08
2.10515e-06
1.23924e-08
2.09575e-06
1.21031e-08
2.08661e-06
1.16611e-08
2.07758e-06
1.1502e-08
2.06876e-06
1.13049e-08
2.06023e-06
1.10177e-08
2.05215e-06
1.02666e-08
2.04432e-06
9.9148e-09
2.03668e-06
9.61811e-09
2.02909e-06
9.6641e-09
2.02173e-06
9.45822e-09
2.01473e-06
8.97452e-09
2.00823e-06
8.06013e-09
2.00186e-06
7.96786e-09
1.99562e-06
7.95351e-09
1.98963e-06
7.65844e-09
1.98404e-06
6.92102e-09
1.97855e-06
6.89074e-09
1.97326e-06
6.65841e-09
1.96818e-06
6.43617e-09
1.96344e-06
5.86145e-09
1.95883e-06
5.7897e-09
1.95449e-06
5.39892e-09
1.95029e-06
5.28432e-09
1.94637e-06
4.82572e-09
1.94256e-06
4.78574e-09
1.939e-06
4.37922e-09
1.93556e-06
4.31648e-09
1.93236e-06
3.91022e-09
1.92924e-06
3.91984e-09
1.92637e-06
3.49839e-09
1.92358e-06
3.4946e-09
1.92102e-06
3.10348e-09
1.91849e-06
3.18385e-09
1.91622e-06
2.74119e-09
1.91398e-06
2.80618e-09
1.91197e-06
2.39413e-09
1.90998e-06
2.51476e-09
1.90821e-06
2.0966e-09
1.90644e-06
2.23606e-09
1.90489e-06
1.83153e-09
1.90333e-06
1.98255e-09
1.90201e-06
1.54123e-09
1.90065e-06
1.7408e-09
1.89952e-06
1.29477e-09
1.89831e-06
1.55932e-09
1.89735e-06
1.08471e-09
1.89627e-06
1.40213e-09
1.89546e-06
9.0021e-10
1.89451e-06
1.25817e-09
1.89384e-06
7.2002e-10
1.89299e-06
1.12953e-09
1.89247e-06
5.38146e-10
1.89171e-06
1.02989e-09
1.89132e-06
3.67238e-10
1.89064e-06
9.56908e-10
1.89037e-06
2.17629e-10
1.88974e-06
9.05819e-10
1.88958e-06
9.08317e-11
1.88897e-06
8.94493e-10
1.88891e-06
-1.79726e-11
1.88828e-06
9.40465e-10
1.8883e-06
-1.00921e-10
1.88762e-06
1.05514e-09
1.88768e-06
-1.31853e-10
1.88688e-06
1.25784e-09
1.88695e-06
-7.94709e-11
1.88595e-06
1.61117e-09
1.88593e-06
1.13473e-10
1.88456e-06
2.23423e-09
1.88431e-06
5.82825e-10
1.88229e-06
3.34661e-09
1.88147e-06
1.69838e-09
1.87816e-06
5.45448e-09
1.87606e-06
4.48838e-09
1.86947e-06
1.028e-08
1.86423e-06
1.18582e-08
3.43857e-08
4.4949e-06
1.03769e-08
4.51108e-06
9.10672e-10
4.52123e-06
1.5426e-08
4.51813e-06
4.5263e-08
4.5153e-06
5.76141e-08
4.51418e-06
5.9156e-08
4.51509e-06
5.48617e-08
4.51663e-06
4.99185e-08
4.51775e-06
4.73607e-08
4.51867e-06
4.7129e-08
4.51967e-06
4.8506e-08
4.52068e-06
5.0586e-08
4.52148e-06
5.26706e-08
4.52202e-06
5.44415e-08
4.52237e-06
5.59247e-08
4.52258e-06
5.7245e-08
4.52269e-06
5.8557e-08
4.52269e-06
5.99269e-08
4.52253e-06
6.13587e-08
4.5222e-06
6.28193e-08
4.52168e-06
6.42562e-08
4.52097e-06
6.5659e-08
4.52006e-06
6.69945e-08
4.51895e-06
6.83054e-08
4.51766e-06
6.95744e-08
4.51618e-06
7.0869e-08