/*--------------------------------*- C++ -*----------------------------------*\
| =========                 |                                                 |
| \\      /  F ield         | OpenFOAM: The Open Source CFD Toolbox           |
|  \\    /   O peration     | Version:  v2012                                 |
|   \\  /    A nd           | Website:  www.openfoam.com                      |
|    \\/     M anipulation  |                                                 |
\*---------------------------------------------------------------------------*/
FoamFile
{
    version     2.0;
    format      ascii;
    class       volVectorField;
    location    "0.8";
    object      U;
}
// * * * * * * * * * * * * * * * * * * * * * * * * * * * * * * * * * * * * * //

dimensions      [0 1 -1 0 0 0 0];


internalField   nonuniform List<vector> 
8800
(
(0.964787 -0.00129531 0)
(1.03449 0.00111502 0)
(0.968284 -0.00106643 0)
(1.03147 0.000974945 0)
(0.97242 -0.000880942 0)
(1.02884 0.000778923 0)
(0.976258 -0.000751292 0)
(1.02636 0.000652894 0)
(0.979812 -0.000629406 0)
(1.02408 0.000556455 0)
(0.983098 -0.000529965 0)
(1.02204 0.000506707 0)
(0.986157 -0.000392115 0)
(1.02032 0.000405843 0)
(0.98909 -0.000272016 0)
(1.01901 0.000278864 0)
(0.99203 -0.000155475 0)
(1.01828 0.000201161 0)
(0.995308 0.000315319 0)
(1.01929 0.000844609 0)
(0.986793 -0.00120508 0)
(1.01132 0.000878241 0)
(0.989998 -0.000852954 0)
(1.00907 0.000702783 0)
(0.993323 -0.00060797 0)
(1.00745 0.000431123 0)
(0.995954 -0.000423354 0)
(1.0062 0.000277251 0)
(0.998059 -0.000301616 0)
(1.00533 0.000210062 0)
(0.999817 -0.000220562 0)
(1.00478 0.000198852 0)
(1.00126 -9.34739e-05 0)
(1.00462 0.000125629 0)
(1.00262 -4.66592e-06 0)
(1.00486 1.8432e-05 0)
(1.00403 0.000206381 0)
(1.00566 0.000374973 0)
(1.00604 0.00102392 0)
(1.00833 0.000879944 0)
(0.997413 -0.00116208 0)
(1.00137 0.000789845 0)
(0.997855 -0.000787793 0)
(1.00078 0.000648076 0)
(0.998897 -0.000591159 0)
(1.00074 0.000391687 0)
(0.9997 -0.000480772 0)
(1.00087 0.000340823 0)
(1.00037 -0.000503497 0)
(1.00115 0.000496844 0)
(1.00103 -0.000544989 0)
(1.00154 0.000618872 0)
(1.00163 -0.000489196 0)
(1.00209 0.000605042 0)
(1.00237 -0.000499824 0)
(1.00289 0.000516432 0)
(1.00343 -0.000387032 0)
(1.00415 0.00168988 0)
(1.00502 0.00188011 0)
(1.00685 0.00498262 0)
(0.999702 -0.00112708 0)
(0.999524 0.000699828 0)
(0.999159 -0.000670684 0)
(0.999424 0.000539855 0)
(0.999522 -0.000452825 0)
(0.999736 0.000219572 0)
(0.999901 -0.000268947 0)
(1.00009 6.95971e-05 0)
(1.00031 -0.000217194 0)
(1.00051 9.85512e-05 0)
(1.00079 -0.000158404 0)
(1.00099 0.000120091 0)
(1.00129 -3.806e-05 0)
(1.00157 0.000175934 0)
(1.00196 9.61085e-06 0)
(1.00238 0.000128029 0)
(1.00314 -6.79085e-06 0)
(1.00402 0.000169508 0)
(1.0053 0.000228354 0)
(1.00632 0.00108162 0)
(0.999992 -0.000940633 0)
(0.999354 0.000429742 0)
(0.999296 -0.000405064 0)
(0.999316 0.000275114 0)
(0.999556 -0.00019803 0)
(0.999671 -5.53231e-05 0)
(0.999879 -4.80136e-06 0)
(1.00004 -0.000261327 0)
(1.00027 0.000160239 0)
(1.00046 -0.000346062 0)
(1.0007 0.000308922 0)
(1.00094 -0.00037552 0)
(1.00123 0.000449259 0)
(1.00151 -0.000287324 0)
(1.00188 0.000521893 0)
(1.00232 -0.000334173 0)
(1.00289 0.000412092 0)
(1.0036 -0.00112148 0)
(1.00462 -0.000561613 0)
(1.00677 -0.00166904 0)
(1.00004 -0.00105139 0)
(0.999351 0.000525391 0)
(0.999333 -0.000492932 0)
(0.999308 0.000422581 0)
(0.999575 -0.000362647 0)
(0.999663 0.000180541 0)
(0.999898 -0.000363538 0)
(1.00004 0.000131076 0)
(1.00029 -0.000302065 0)
(1.00046 0.000172559 0)
(1.00072 -0.000233967 0)
(1.00094 0.000290304 0)
(1.00124 -9.78568e-05 0)
(1.00151 0.000358637 0)
(1.00187 -9.31521e-05 0)
(1.00229 0.000301581 0)
(1.00289 -0.000204453 0)
(1.00376 0.000300078 0)
(1.00513 0.000438469 0)
(1.00768 0.00249852 0)
(1.00004 -0.000746552 0)
(0.999385 0.000107925 0)
(0.999345 -4.97827e-05 0)
(0.999329 -2.27067e-05 0)
(0.99958 8.34727e-05 0)
(0.999676 -0.000188232 0)
(0.999911 -2.45104e-06 0)
(1.00006 -0.000228162 0)
(1.00031 7.44037e-06 0)
(1.00048 -0.000212309 0)
(1.00074 0.000103024 0)
(1.00096 -2.89786e-05 0)
(1.00127 0.000256736 0)
(1.00152 4.55278e-05 0)
(1.0019 0.000225874 0)
(1.0023 8.46794e-05 0)
(1.00292 0.000202719 0)
(1.00375 0.000222017 0)
(1.00521 0.000356255 0)
(1.00789 0.00109486 0)
(1.00005 -0.00088038 0)
(0.999428 0.000207861 0)
(0.999364 -0.000278013 0)
(0.999352 0.000296932 0)
(0.999596 -0.000284682 0)
(0.999688 0.000253357 0)
(0.999927 -0.000367731 0)
(1.00008 0.000106151 0)
(1.00032 -0.000184369 0)
(1.00051 2.1769e-05 0)
(1.00078 -0.000122994 0)
(1.001 0.000228401 0)
(1.00129 5.8651e-05 0)
(1.00155 0.000259479 0)
(1.00191 0.000102008 0)
(1.00233 0.0002663 0)
(1.00295 0.000188253 0)
(1.00384 0.000446016 0)
(1.00542 0.000759229 0)
(1.00829 0.00167647 0)
(1.00005 -0.000630598 0)
(0.999465 -0.000116051 0)
(0.9994 -4.87462e-05 0)
(0.999365 8.10809e-05 0)
(0.999623 -1.66257e-06 0)
(0.999704 1.84221e-05 0)
(0.999941 -0.00018008 0)
(1.00012 -8.7075e-05 0)
(1.00034 -8.78454e-05 0)
(1.00053 -2.15279e-05 0)
(1.00082 2.73304e-05 0)
(1.00103 0.000153331 0)
(1.00132 0.000136666 0)
(1.00157 0.000230322 0)
(1.00194 0.000187046 0)
(1.00237 0.000306504 0)
(1.00301 0.000333951 0)
(1.00396 0.000638303 0)
(1.00564 0.00100494 0)
(1.00865 0.00181023 0)
(1.00005 -0.000667884 0)
(0.999524 -0.00012129 0)
(0.999434 -8.05894e-05 0)
(0.999408 8.06115e-05 0)
(0.999641 0.000166593 0)
(0.999718 -0.000166268 0)
(0.999967 1.46514e-05 0)
(1.00014 -0.000106898 0)
(1.00039 -0.000195007 0)
(1.00059 0.000102522 0)
(1.00086 8.49518e-05 0)
(1.00107 0.000191599 0)
(1.00135 0.000158084 0)
(1.00161 0.000256634 0)
(1.00198 0.000249412 0)
(1.00242 0.000368805 0)
(1.0031 0.000461435 0)
(1.0041 0.000763546 0)
(1.00586 0.00115842 0)
(1.00898 0.00183755 0)
(1.00005 -0.000534427 0)
(0.999573 -0.000272372 0)
(0.99948 -0.000134917 0)
(0.99945 0.000182671 0)
(0.999653 2.90321e-05 0)
(0.999748 -3.55806e-06 0)
(1.00001 6.18435e-06 0)
(1.00015 -7.56464e-05 0)
(1.00043 -0.00012205 0)
(1.00064 6.97668e-05 0)
(1.0009 9.36627e-05 0)
(1.0011 0.000191499 0)
(1.00139 0.000178601 0)
(1.00165 0.00027297 0)
(1.00203 0.000297853 0)
(1.00248 0.000428635 0)
(1.00319 0.000560766 0)
(1.00425 0.000863892 0)
(1.00608 0.00125204 0)
(1.00928 0.00183777 0)
(1.00005 -0.000488105 0)
(0.999627 -0.00036883 0)
(0.999547 -0.000153572 0)
(0.99949 0.000213882 0)
(0.999687 1.2666e-05 0)
(0.999782 0.000232176 0)
(1.00002 -0.000149375 0)
(1.00018 -4.96139e-05 0)
(1.00048 -3.53039e-05 0)
(1.00069 6.82684e-05 0)
(1.00095 9.78932e-05 0)
(1.00115 0.000214432 0)
(1.00144 0.000224501 0)
(1.0017 0.000315885 0)
(1.00209 0.000360941 0)
(1.00256 0.000504507 0)
(1.00331 0.000655694 0)
(1.00441 0.000956291 0)
(1.0063 0.00131731 0)
(1.00956 0.00183331 0)
(1.00005 -0.000397957 0)
(0.999685 -0.000457812 0)
(0.999621 -0.000143314 0)
(0.999544 8.24853e-05 0)
(0.999735 0.000167126 0)
(0.999798 0.000203754 0)
(1.00004 -7.67395e-05 0)
(1.00024 8.27863e-06 0)
(1.00053 3.76944e-05 0)
(1.00074 9.58819e-05 0)
(1.001 0.000111196 0)
(1.00121 0.00021821 0)
(1.00149 0.000253111 0)
(1.00176 0.000341202 0)
(1.00216 0.000408116 0)
(1.00265 0.000557011 0)
(1.00343 0.0007256 0)
(1.00458 0.00101166 0)
(1.00652 0.00134872 0)
(1.00983 0.00179659 0)
(1.00005 -0.000368115 0)
(0.99974 -0.000408601 0)
(0.999692 -0.000263041 0)
(0.999612 3.81489e-05 0)
(0.999785 0.000172675 0)
(0.999826 0.000210927 0)
(1.00007 9.84016e-05 0)
(1.00028 4.1704e-05 0)
(1.00057 4.23233e-05 0)
(1.00078 0.000117146 0)
(1.00106 0.000150656 0)
(1.00127 0.000232784 0)
(1.00155 0.000284968 0)
(1.00183 0.000368468 0)
(1.00224 0.00045537 0)
(1.00275 0.000603753 0)
(1.00356 0.000785194 0)
(1.00475 0.00105042 0)
(1.00674 0.00136504 0)
(1.01009 0.00174927 0)
(1.00005 -0.0003166 0)
(0.999779 -0.000362972 0)
(0.999759 -0.000351895 0)
(0.999684 -1.64847e-05 0)
(0.999841 0.000126015 0)
(0.999866 0.000250393 0)
(1.00009 0.000243768 0)
(1.00031 0.000108226 0)
(1.00062 4.40416e-05 0)
(1.00084 0.000141392 0)
(1.00111 0.000187935 0)
(1.00132 0.000270133 0)
(1.00161 0.000317336 0)
(1.0019 0.000408405 0)
(1.00232 0.000496871 0)
(1.00286 0.000651999 0)
(1.00369 0.000826955 0)
(1.00491 0.00108007 0)
(1.00694 0.00136148 0)
(1.01033 0.00170217 0)
(1.00005 -0.000267136 0)
(0.999813 -0.000354922 0)
(0.999817 -0.000340735 0)
(0.999758 -0.000108292 0)
(0.999905 8.04117e-05 0)
(0.999922 0.000233355 0)
(1.00012 0.000337865 0)
(1.00032 0.000267676 0)
(1.00066 0.000131759 0)
(1.00089 0.000150206 0)
(1.00117 0.000201834 0)
(1.00138 0.000289058 0)
(1.00167 0.000347444 0)
(1.00197 0.000439996 0)
(1.00241 0.00053527 0)
(1.00296 0.000686253 0)
(1.00382 0.00085631 0)
(1.00508 0.00108846 0)
(1.00714 0.001343 0)
(1.01056 0.00163985 0)
(1.00005 -0.000212112 0)
(0.999846 -0.000362876 0)
(0.999872 -0.00029424 0)
(0.999826 -0.000170145 0)
(0.999975 9.79079e-06 0)
(0.99999 0.000171169 0)
(1.00017 0.000334274 0)
(1.00034 0.00040632 0)
(1.00067 0.000284572 0)
(1.00093 0.000208122 0)
(1.00122 0.00021402 0)
(1.00144 0.000290852 0)
(1.00173 0.000362953 0)
(1.00204 0.000459227 0)
(1.00249 0.000560159 0)
(1.00307 0.000705328 0)
(1.00396 0.000868669 0)
(1.00524 0.0010778 0)
(1.00732 0.00130606 0)
(1.01077 0.00156302 0)
(1.00005 -0.000179532 0)
(0.999879 -0.000317286 0)
(0.999924 -0.000279387 0)
(0.999887 -0.000168657 0)
(1.00004 -3.68265e-05 0)
(1.00006 0.000142778 0)
(1.00025 0.000283944 0)
(1.00038 0.000440354 0)
(1.00068 0.000417817 0)
(1.00095 0.000337264 0)
(1.00127 0.000274725 0)
(1.0015 0.000310212 0)
(1.0018 0.000374371 0)
(1.00212 0.000474216 0)
(1.00259 0.00057786 0)
(1.00318 0.000718149 0)
(1.00409 0.000871404 0)
(1.0054 0.00105925 0)
(1.0075 0.00125857 0)
(1.01097 0.00148172 0)
(1.00005 -0.00015304 0)
(0.999904 -0.000246153 0)
(0.999969 -0.000264604 0)
(0.999942 -0.000152819 0)
(1.00011 -3.88359e-05 0)
(1.00013 0.000131996 0)
(1.00032 0.00025461 0)
(1.00044 0.000394387 0)
(1.00071 0.000463353 0)
(1.00096 0.000439205 0)
(1.00128 0.000366688 0)
(1.00155 0.000352347 0)
(1.00187 0.000389304 0)
(1.0022 0.000476782 0)
(1.00268 0.000578955 0)
(1.00329 0.000709207 0)
(1.00421 0.000850534 0)
(1.00554 0.00101594 0)
(1.00767 0.00118804 0)
(1.01116 0.0013779 0)
(1.00005 -0.000121237 0)
(0.999922 -0.000196282 0)
(1 -0.000226379 0)
(0.999993 -0.000135703 0)
(1.00017 -2.09205e-05 0)
(1.00019 0.000126118 0)
(1.00038 0.00025624 0)
(1.0005 0.000369489 0)
(1.00075 0.000449974 0)
(1.00097 0.000479304 0)
(1.00129 0.000439633 0)
(1.00157 0.000413151 0)
(1.00192 0.000420884 0)
(1.00227 0.000486778 0)
(1.00276 0.000574532 0)
(1.00339 0.000691603 0)
(1.00433 0.000815976 0)
(1.00567 0.000960579 0)
(1.00782 0.0011068 0)
(1.01132 0.00126563 0)
(1.00005 -9.06601e-05 0)
(0.999938 -0.000159038 0)
(1.00003 -0.000172749 0)
(1.00004 -9.80271e-05 0)
(1.00022 1.74452e-06 0)
(1.00025 0.000138752 0)
(1.00043 0.00026166 0)
(1.00055 0.000371069 0)
(1.0008 0.000434951 0)
(1.001 0.000478723 0)
(1.00131 0.000473542 0)
(1.00159 0.000460037 0)
(1.00195 0.0004577 0)
(1.00232 0.000498814 0)
(1.00284 0.00056608 0)
(1.00348 0.000661606 0)
(1.00444 0.000766258 0)
(1.00579 0.000886589 0)
(1.00795 0.00100907 0)
(1.01147 0.00113833 0)
(1.00005 -6.78065e-05 0)
(0.999952 -0.000113568 0)
(1.00006 -0.000115261 0)
(1.00008 -5.34622e-05 0)
(1.00027 3.29158e-05 0)
(1.00031 0.000154409 0)
(1.00049 0.000271267 0)
(1.0006 0.000373355 0)
(1.00084 0.000431985 0)
(1.00103 0.000471667 0)
(1.00133 0.000480105 0)
(1.00161 0.000481895 0)
(1.00198 0.000479804 0)
(1.00237 0.000505877 0)
(1.0029 0.000550783 0)
(1.00356 0.000623942 0)
(1.00453 0.000705461 0)
(1.0059 0.000801685 0)
(1.00807 0.000898773 0)
(1.01159 0.00100278 0)
(1.00005 -4.524e-05 0)
(0.999963 -6.57247e-05 0)
(1.00008 -5.8477e-05 0)
(1.00011 -2.24754e-06 0)
(1.00031 7.46687e-05 0)
(1.00036 0.000182015 0)
(1.00054 0.000285251 0)
(1.00064 0.000378933 0)
(1.00087 0.000434103 0)
(1.00106 0.000470996 0)
(1.00135 0.000481982 0)
(1.00162 0.000488163 0)
(1.002 0.000486349 0)
(1.0024 0.00049965 0)
(1.00295 0.000525388 0)
(1.00362 0.000572971 0)
(1.0046 0.000630833 0)
(1.00599 0.000700068 0)
(1.00816 0.000771677 0)
(1.0117 0.000848091 0)
(1.00005 -2.44275e-05 0)
(0.999973 -2.47055e-05 0)
(1.0001 -3.46419e-06 0)
(1.00014 5.48992e-05 0)
(1.00035 0.000128324 0)
(1.0004 0.000220833 0)
(1.00058 0.000308967 0)
(1.00068 0.000389026 0)
(1.00089 0.000441425 0)
(1.00107 0.000474645 0)
(1.00136 0.000485788 0)
(1.00163 0.000487461 0)
(1.00201 0.0004805 0)
(1.00241 0.000479107 0)
(1.00297 0.000485299 0)
(1.00366 0.0005071 0)
(1.00465 0.000538545 0)
(1.00605 0.00058098 0)
(1.00823 0.000626503 0)
(1.01177 0.00067631 0)
(1.00005 -3.09944e-06 0)
(0.99998 1.70445e-05 0)
(1.00012 5.44367e-05 0)
(1.00016 0.00011469 0)
(1.00038 0.000185093 0)
(1.00043 0.000265711 0)
(1.00061 0.000340545 0)
(1.0007 0.000406789 0)
(1.00092 0.000452914 0)
(1.00109 0.000481869 0)
(1.00136 0.000490666 0)
(1.00163 0.000486424 0)
(1.002 0.000469955 0)
(1.00241 0.000451666 0)
(1.00298 0.000434393 0)
(1.00367 0.000426303 0)
(1.00468 0.000427815 0)
(1.00608 0.000440993 0)
(1.00827 0.000461029 0)
(1.01182 0.000487148 0)
(1.00005 1.36983e-05 0)
(0.999984 6.44087e-05 0)
(1.00013 0.000115831 0)
(1.00017 0.00017616 0)
(1.0004 0.00024295 0)
(1.00045 0.000315105 0)
(1.00063 0.000382274 0)
(1.00072 0.000436447 0)
(1.00093 0.000474438 0)
(1.00109 0.000495387 0)
(1.00136 0.000498183 0)
(1.00161 0.000485799 0)
(1.00198 0.000460635 0)
(1.00238 0.000426097 0)
(1.00295 0.00038293 0)
(1.00365 0.000335547 0)
(1.00466 0.000287693 0)
(1.00607 0.000244729 0)
(1.00828 0.000209771 0)
(1.01183 0.000185983 0)
(1.00005 3.40444e-05 0)
(0.999987 0.000107612 0)
(1.00013 0.000178402 0)
(1.00018 0.000238628 0)
(1.00041 0.00030429 0)
(1.00046 0.000366334 0)
(1.00064 0.000430671 0)
(1.00072 0.000477139 0)
(1.00092 0.00051117 0)
(1.00108 0.00052046 0)
(1.00133 0.000510522 0)
(1.00158 0.000480082 0)
(1.00194 0.000441295 0)
(1.00232 0.000399074 0)
(1.00287 0.000360211 0)
(1.00356 0.000322028 0)
(1.00456 0.000284 0)
(1.00596 0.000242112 0)
(1.00817 0.000197845 0)
(1.01174 0.000154346 0)
(1.00005 5.41388e-05 0)
(0.999988 0.000150675 0)
(1.00013 0.000241972 0)
(1.00018 0.000306656 0)
(1.00041 0.000370925 0)
(1.00046 0.000423251 0)
(1.00064 0.000479854 0)
(1.00072 0.000526597 0)
(1.00091 0.000562606 0)
(1.00105 0.000572498 0)
(1.00129 0.000552275 0)
(1.00152 0.000492547 0)
(1.00187 0.00039877 0)
(1.00227 0.000277617 0)
(1.00284 0.000143381 0)
(1.00353 5.28738e-06 0)
(1.00454 -0.000125077 0)
(1.00593 -0.000242522 0)
(1.00812 -0.000345679 0)
(1.01168 -0.00043791 0)
(1.00005 7.07036e-05 0)
(0.999986 0.000198428 0)
(1.00012 0.000305047 0)
(1.00017 0.000386464 0)
(1.00039 0.000451446 0)
(1.00045 0.000496188 0)
(1.00063 0.000534919 0)
(1.00071 0.000568077 0)
(1.00089 0.000593118 0)
(1.00101 0.000606654 0)
(1.00121 0.00060849 0)
(1.00139 0.000596506 0)
(1.00168 0.000565756 0)
(1.00201 0.000511479 0)
(1.00253 0.000430729 0)
(1.00319 0.000323706 0)
(1.00419 0.000193145 0)
(1.0056 4.66039e-05 0)
(1.00782 -0.000100768 0)
(1.01141 -0.000241871 0)
(1.00005 9.39033e-05 0)
(0.999981 0.000226079 0)
(1.00011 0.000360602 0)
(1.00015 0.000448599 0)
(1.00037 0.000551658 0)
(1.00042 0.000613181 0)
(1.00059 0.000684261 0)
(1.00066 0.000701292 0)
(1.00084 0.00069765 0)
(1.00097 0.000629308 0)
(1.00119 0.000535911 0)
(1.0014 0.000390472 0)
(1.00171 0.000228414 0)
(1.00206 2.55928e-05 0)
(1.00256 -0.000186866 0)
(1.00317 -0.000425974 0)
(1.0041 -0.000660913 0)
(1.00544 -0.000903348 0)
(1.0076 -0.00112472 0)
(1.01114 -0.00132295 0)
(1.00005 0.000135909 0)
(0.999973 0.0002722 0)
(1.0001 0.000433049 0)
(1.00014 0.000459413 0)
(1.00036 0.000559643 0)
(1.00041 0.000595174 0)
(1.00057 0.000714174 0)
(1.0006 0.000781801 0)
(1.00072 0.000904563 0)
(1.00076 0.000969551 0)
(1.00088 0.00105841 0)
(1.00098 0.00107127 0)
(1.00118 0.00107199 0)
(1.00142 0.000977302 0)
(1.00185 0.000845981 0)
(1.00244 0.000614783 0)
(1.00338 0.000337749 0)
(1.00477 -3.57992e-05 0)
(1.00701 -0.000461309 0)
(1.01069 -0.000969392 0)
(1.00005 0.000129663 0)
(0.999945 0.000293435 0)
(1.00003 0.000570963 0)
(1.00005 0.000689964 0)
(1.00028 0.000845692 0)
(1.00035 0.000834157 0)
(1.00056 0.000841799 0)
(1.00065 0.000729319 0)
(1.00084 0.000659137 0)
(1.00096 0.000500542 0)
(1.00115 0.00038248 0)
(1.00128 0.000181288 0)
(1.00149 2.28062e-06 0)
(1.00167 -0.000256969 0)
(1.00197 -0.000498993 0)
(1.00234 -0.000806084 0)
(1.00297 -0.0010912 0)
(1.00396 -0.00141659 0)
(1.00575 -0.00168903 0)
(1.00896 -0.00194934 0)
(1.00005 0.000252134 0)
(1.00001 5.90877e-05 0)
(1.00012 0.000580728 0)
(1.00012 0.000461704 0)
(1.00027 0.000889705 0)
(1.00024 0.000791314 0)
(1.00031 0.00120313 0)
(1.00028 0.00121183 0)
(1.00033 0.00168463 0)
(1.00031 0.00179711 0)
(1.00036 0.00223272 0)
(1.00036 0.00225025 0)
(1.00045 0.00244007 0)
(1.00058 0.00225973 0)
(1.00088 0.00227064 0)
(1.00136 0.00199156 0)
(1.00221 0.00180447 0)
(1.00357 0.00114559 0)
(1.00588 0.000124919 0)
(1.0098 -0.00202945 0)
(1.00004 0.000171779 0)
(0.999985 0.000520465 0)
(1.00009 0.000812071 0)
(1.00011 0.000955831 0)
(1.00033 0.000990378 0)
(1.00046 0.000875987 0)
(1.00074 0.000710822 0)
(1.00096 0.00049893 0)
(1.00126 0.000319015 0)
(1.00143 0.000126482 0)
(1.00154 -5.15215e-05 0)
(1.00147 -0.000259933 0)
(1.00141 -0.000461887 0)
(1.00138 -0.000675898 0)
(1.00147 -0.000866454 0)
(1.00149 -0.00105184 0)
(1.00129 -0.00121044 0)
(1.00048 -0.00135951 0)
(0.998617 -0.00148744 0)
(0.994771 -0.00163524 0)
(1.00005 0.000163148 0)
(1 0.000354258 0)
(1.00003 0.000597636 0)
(0.999892 0.000787095 0)
(0.999858 0.00104478 0)
(0.999658 0.00123441 0)
(0.999618 0.00144284 0)
(0.999529 0.00152583 0)
(0.99955 0.00151794 0)
(0.99949 0.00131942 0)
(0.999474 0.00105617 0)
(0.999415 0.000733174 0)
(0.999462 0.000468907 0)
(0.999567 0.000174104 0)
(0.99988 -0.000138137 0)
(1.0004 -0.000569163 0)
(1.00136 -0.00108157 0)
(1.00291 -0.00170848 0)
(1.0055 -0.00234973 0)
(1.00976 -0.00296987 0)
(1.00004 0.000195489 0)
(0.999958 0.000510295 0)
(1.00009 0.000780978 0)
(1.00016 0.000891728 0)
(1.00044 0.000945416 0)
(1.00058 0.000895811 0)
(1.00082 0.000817559 0)
(1.00087 0.000667954 0)
(1.00089 0.000530292 0)
(1.00077 0.000370749 0)
(1.00068 0.000234315 0)
(1.00055 7.00452e-05 0)
(1.00045 -9.44247e-05 0)
(1.00025 -0.000298957 0)
(0.999985 -0.000510435 0)
(0.999461 -0.00075269 0)
(0.998596 -0.000992503 0)
(0.997081 -0.00125686 0)
(0.994616 -0.00154325 0)
(0.990448 -0.00190134 0)
(1.00005 0.000155179 0)
(0.999961 0.000491397 0)
(0.999864 0.000782322 0)
(0.999572 0.00104603 0)
(0.999389 0.00124183 0)
(0.999048 0.00134573 0)
(0.998875 0.00130992 0)
(0.998696 0.00117005 0)
(0.998676 0.000964831 0)
(0.998596 0.000751794 0)
(0.998543 0.000514088 0)
(0.998415 0.000246822 0)
(0.998359 -8.39739e-05 0)
(0.998354 -0.000471535 0)
(0.998571 -0.000925723 0)
(0.99904 -0.00141909 0)
(0.999998 -0.00193761 0)
(1.00158 -0.00243056 0)
(1.00419 -0.00286604 0)
(1.00841 -0.00318463 0)
(1.00005 0.000166712 0)
(0.999975 0.000359198 0)
(1.00012 0.000607873 0)
(1.00018 0.000757288 0)
(1.00038 0.000980271 0)
(1.00036 0.0011343 0)
(1.00039 0.00132593 0)
(1.00025 0.00139714 0)
(1.00015 0.0014301 0)
(0.999936 0.00135154 0)
(0.999714 0.00128939 0)
(0.999362 0.00115644 0)
(0.998965 0.00100903 0)
(0.998407 0.000748972 0)
(0.99774 0.000433835 0)
(0.996816 4.33088e-06 0)
(0.995606 -0.000479465 0)
(0.993845 -0.00107362 0)
(0.991264 -0.00173192 0)
(0.987129 -0.00250144 0)
(1.00005 0.000154644 0)
(0.999925 0.000487834 0)
(0.9998 0.000764153 0)
(0.999494 0.000970482 0)
(0.99931 0.0011134 0)
(0.998949 0.00123024 0)
(0.998692 0.00133734 0)
(0.998342 0.00143319 0)
(0.998132 0.00148479 0)
(0.997924 0.00147034 0)
(0.997773 0.00136271 0)
(0.997487 0.00115197 0)
(0.997162 0.000825869 0)
(0.996782 0.00038763 0)
(0.996571 -0.000160102 0)
(0.996587 -0.000796616 0)
(0.997067 -0.00149385 0)
(0.998152 -0.00220549 0)
(1.0003 -0.00287975 0)
(1.00415 -0.00345343 0)
(1.00005 0.000144604 0)
(0.99999 -0.000134768 0)
(1.00009 0.000194711 0)
(1.0001 0.00019634 0)
(1.00027 0.000785232 0)
(1.00027 0.0011118 0)
(1.00032 0.00190841 0)
(1.00015 0.00241712 0)
(0.999923 0.00321545 0)
(0.999458 0.00363091 0)
(0.998876 0.00415052 0)
(0.998058 0.0042634 0)
(0.9971 0.00443357 0)
(0.995894 0.00423447 0)
(0.994513 0.00402634 0)
(0.992863 0.00340064 0)
(0.99099 0.00262715 0)
(0.988711 0.00132247 0)
(0.985834 -0.000348532 0)
(0.981688 -0.00284682 0)
(1.00435 0.00202378 0)
(0.991929 0.00273657 0)
(0.977472 0.0031465 0)
(0.963009 0.00342728 0)
(0.949025 0.00358844 0)
(0.935573 0.00358437 0)
(0.922583 0.00343451 0)
(0.910027 0.00322653 0)
(0.897846 0.00304936 0)
(0.885983 0.00294726 0)
(0.874284 0.0029057 0)
(0.862605 0.00289132 0)
(0.850794 0.00288162 0)
(0.838777 0.00286631 0)
(0.826496 0.00284652 0)
(0.813954 0.00282564 0)
(0.801161 0.00280784 0)
(0.788154 0.00279267 0)
(0.774966 0.00278007 0)
(0.76163 0.00276656 0)
(0.748175 0.00275199 0)
(0.734612 0.00273393 0)
(0.720966 0.00271386 0)
(0.707225 0.00269089 0)
(0.693417 0.0026668 0)
(0.679514 0.00264173 0)
(0.665544 0.00261627 0)
(0.651473 0.00259132 0)
(0.637331 0.00256555 0)
(0.623085 0.00254084 0)
(0.608763 0.00251467 0)
(0.59434 0.00248946 0)
(0.579836 0.00246267 0)
(0.56524 0.00243565 0)
(0.550567 0.00240757 0)
(0.535812 0.00237754 0)
(0.520997 0.00234671 0)
(0.506113 0.00231277 0)
(0.491198 0.00227589 0)
(0.476238 0.00223704 0)
(0.461284 0.00219059 0)
(0.446338 0.00214395 0)
(0.431434 0.00208726 0)
(0.416624 0.002027 0)
(0.401907 0.00196302 0)
(0.387383 0.00188326 0)
(0.373065 0.0018059 0)
(0.359033 0.00170497 0)
(0.345405 0.00158987 0)
(0.332178 0.00145549 0)
(0.319589 0.00129092 0)
(0.307616 0.00111626 0)
(0.296482 0.000913878 0)
(0.286208 0.00070783 0)
(0.276905 0.000493346 0)
(0.268683 0.000294533 0)
(0.261449 0.000121223 0)
(0.255286 -3.77384e-05 0)
(0.25009 -0.00015502 0)
(0.245695 -0.000254545 0)
(0.242189 -0.00033081 0)
(0.239252 -0.000373447 0)
(0.236908 -0.000407595 0)
(0.235021 -0.000421554 0)
(0.233464 -0.00042154 0)
(0.232184 -0.000413913 0)
(0.231107 -0.000393213 0)
(0.230151 -0.000376738 0)
(0.229326 -0.000351129 0)
(0.228467 -0.000317582 0)
(0.227664 -0.000289924 0)
(0.226826 -0.00026097 0)
(0.22596 -0.000229479 0)
(0.224984 -0.0002039 0)
(0.224005 -0.000186098 0)
(0.222948 -0.0001691 0)
(0.221901 -0.000153771 0)
(0.220783 -0.000139191 0)
(0.219693 -0.000125771 0)
(0.218531 -0.000111922 0)
(0.217383 -9.79131e-05 0)
(0.216147 -8.48976e-05 0)
(0.214927 -7.37288e-05 0)
(0.213625 -6.36591e-05 0)
(0.212357 -5.6588e-05 0)
(0.211029 -5.16456e-05 0)
(0.209765 -4.90039e-05 0)
(0.208467 -4.72406e-05 0)
(0.207252 -4.40828e-05 0)
(0.205998 -3.86766e-05 0)
(0.204808 -3.22448e-05 0)
(0.203551 -2.55825e-05 0)
(0.202343 -2.0882e-05 0)
(0.201069 -1.93173e-05 0)
(0.19987 -1.96378e-05 0)
(0.19864 -1.96917e-05 0)
(0.197513 -1.82944e-05 0)
(0.196348 -1.39759e-05 0)
(0.195263 -8.84661e-06 0)
(0.194101 -4.50375e-06 0)
(0.193002 -2.5802e-06 0)
(0.191835 -2.88546e-06 0)
(0.190769 -4.55831e-06 0)
(0.18966 -3.6586e-06 0)
(0.188664 -1.64353e-06 0)
(0.187599 2.33831e-06 0)
(0.186625 5.01742e-06 0)
(0.18556 6.07183e-06 0)
(0.184601 4.8633e-06 0)
(0.183569 4.65112e-06 0)
(0.182671 4.98828e-06 0)
(0.18169 7.48694e-06 0)
(0.180836 8.02082e-06 0)
(0.179877 8.74466e-06 0)
(0.179047 9.15768e-06 0)
(0.178108 9.39737e-06 0)
(0.177325 8.4391e-06 0)
(0.176437 9.65588e-06 0)
(0.175713 9.4506e-06 0)
(0.17486 9.63827e-06 0)
(0.174172 9.62531e-06 0)
(0.173342 1.06665e-05 0)
(0.1727 1.00424e-05 0)
(0.171911 1.00149e-05 0)
(0.171331 7.65679e-06 0)
(0.17059 8.39692e-06 0)
(0.170049 9.71579e-06 0)
(0.169306 1.11052e-05 0)
(0.168812 8.32889e-06 0)
(0.168146 7.70263e-06 0)
(0.167741 6.7946e-06 0)
(0.167093 9.01259e-06 0)
(0.166683 1.01823e-05 0)
(0.166028 9.40074e-06 0)
(0.165713 5.78826e-06 0)
(0.165155 7.54664e-06 0)
(0.164882 8.95247e-06 0)
(0.164289 8.32031e-06 0)
(0.164069 5.10149e-06 0)
(0.163538 7.00178e-06 0)
(0.163366 7.01898e-06 0)
(0.162823 7.27644e-06 0)
(0.162705 5.18589e-06 0)
(0.162195 6.58254e-06 0)
(0.162131 5.33344e-06 0)
(0.161621 6.19043e-06 0)
(0.16161 4.4891e-06 0)
(0.161109 5.61565e-06 0)
(0.161149 4.06751e-06 0)
(0.160646 4.93836e-06 0)
(0.160739 3.40188e-06 0)
(0.160231 4.66221e-06 0)
(0.160376 2.89289e-06 0)
(0.159859 3.98847e-06 0)
(0.160062 2.37068e-06 0)
(0.159526 3.93741e-06 0)
(0.159783 1.89203e-06 0)
(0.159226 3.31454e-06 0)
(0.159547 1.41274e-06 0)
(0.158962 3.08998e-06 0)
(0.159346 1.09055e-06 0)
(0.158724 2.86675e-06 0)
(0.159175 8.93364e-07 0)
(0.158508 2.69104e-06 0)
(0.159033 3.96157e-07 0)
(0.158316 2.40464e-06 0)
(0.15892 -1.01778e-08 0)
(0.158143 2.20684e-06 0)
(0.15883 -2.90793e-07 0)
(0.157985 2.03623e-06 0)
(0.158759 -4.25257e-07 0)
(0.157839 1.93096e-06 0)
(0.158706 -5.58661e-07 0)
(0.157705 1.89344e-06 0)
(0.158672 -7.74369e-07 0)
(0.157582 1.90819e-06 0)
(0.158652 -9.56104e-07 0)
(0.157465 1.95512e-06 0)
(0.158644 -1.02494e-06 0)
(0.157354 2.03598e-06 0)
(0.158644 -1.03494e-06 0)
(0.157244 2.221e-06 0)
(0.158646 -1.00683e-06 0)
(0.15713 2.53377e-06 0)
(0.158645 -9.52852e-07 0)
(0.157004 3.02491e-06 0)
(0.158628 -7.8566e-07 0)
(0.156854 3.7466e-06 0)
(0.158581 -5.62857e-07 0)
(0.15666 4.94668e-06 0)
(0.158476 2.3589e-07 0)
(0.156386 7.10742e-06 0)
(0.158261 1.93678e-06 0)
(0.155958 1.10313e-05 0)
(0.157839 5.85828e-06 0)
(0.1552 1.75645e-05 0)
(0.157041 1.97849e-05 0)
(0.153542 2.0526e-05 0)
(0.155692 7.5346e-05 0)
(0.149005 0.000130886 0)
(1.01019 0.00168366 0)
(1.00914 0.00269589 0)
(1.00605 0.00387341 0)
(1.00296 0.00506428 0)
(1.00029 0.00586354 0)
(0.998098 0.00612672 0)
(0.996366 0.00593177 0)
(0.995058 0.00552623 0)
(0.994113 0.00517308 0)
(0.993408 0.00499708 0)
(0.992794 0.00497333 0)
(0.992119 0.00501973 0)
(0.991275 0.00507594 0)
(0.990186 0.00511614 0)
(0.988823 0.00514047 0)
(0.987173 0.00515779 0)
(0.985258 0.00517627 0)
(0.983088 0.00519939 0)
(0.980707 0.00522563 0)
(0.978116 0.00525234 0)
(0.975359 0.00527593 0)
(0.972417 0.00529553 0)
(0.969331 0.00530998 0)
(0.966062 0.00532114 0)
(0.962654 0.00532911 0)
(0.959053 0.00533664 0)
(0.955305 0.00534331 0)
(0.951349 0.00535121 0)
(0.947231 0.00535888 0)
(0.942894 0.00536767 0)
(0.938381 0.005376 0)
(0.933635 0.00538469 0)
(0.928702 0.0053925 0)
(0.923527 0.00539951 0)
(0.918155 0.00540497 0)
(0.912533 0.00540863 0)
(0.90671 0.00540965 0)
(0.90063 0.00540804 0)
(0.894349 0.00540161 0)
(0.887811 0.00539164 0)
(0.881073 0.00537441 0)
(0.874087 0.00535132 0)
(0.866908 0.00531981 0)
(0.8595 0.00527754 0)
(0.851921 0.00522731 0)
(0.844132 0.00516052 0)
(0.836229 0.00508179 0)
(0.828144 0.00498317 0)
(0.82003 0.00485662 0)
(0.811792 0.00470585 0)
(0.803622 0.00451562 0)
(0.795442 0.00429524 0)
(0.787432 0.00403802 0)
(0.779539 0.00375114 0)
(0.771923 0.00344437 0)
(0.764548 0.00312353 0)
(0.757526 0.00280679 0)
(0.750785 0.00249528 0)
(0.744444 0.00220056 0)
(0.738346 0.00193509 0)
(0.732633 0.00168999 0)
(0.727126 0.00148169 0)
(0.721927 0.00130368 0)
(0.716884 0.00115331 0)
(0.7121 0.00103173 0)
(0.707388 0.000933721 0)
(0.702902 0.000854979 0)
(0.698425 0.000790507 0)
(0.694139 0.000736574 0)
(0.689803 0.000696644 0)
(0.685615 0.000666841 0)
(0.681368 0.000648078 0)
(0.677244 0.00063825 0)
(0.673006 0.000634481 0)
(0.668905 0.000626898 0)
(0.664682 0.000617738 0)
(0.66062 0.000605639 0)
(0.656429 0.000594961 0)
(0.652407 0.000583702 0)
(0.648257 0.000575816 0)
(0.644266 0.000569892 0)
(0.640129 0.000566196 0)
(0.636151 0.000561562 0)
(0.63201 0.00055575 0)
(0.628052 0.000546601 0)
(0.62394 0.000535658 0)
(0.62003 0.000520325 0)
(0.615991 0.000503965 0)
(0.612176 0.000486964 0)
(0.608221 0.000472978 0)
(0.604492 0.00046374 0)
(0.600594 0.000457313 0)
(0.596902 0.000451765 0)
(0.593047 0.000444211 0)
(0.589407 0.000430005 0)
(0.58562 0.000413352 0)
(0.5821 0.000395164 0)
(0.578417 0.000381583 0)
(0.575001 0.000373697 0)
(0.571398 0.00036964 0)
(0.568042 0.00036418 0)
(0.564494 0.000356332 0)
(0.561232 0.000340946 0)
(0.557769 0.000327321 0)
(0.554638 0.000313912 0)
(0.551271 0.000306505 0)
(0.548234 0.000300648 0)
(0.544938 0.000295761 0)
(0.541992 0.000285756 0)
(0.538781 0.000275646 0)
(0.535964 0.000261502 0)
(0.532844 0.000253856 0)
(0.530163 0.00024656 0)
(0.527126 0.000241458 0)
(0.524517 0.000234355 0)
(0.521565 0.000226658 0)
(0.519102 0.00021374 0)
(0.516243 0.000206379 0)
(0.513922 0.000197857 0)
(0.51117 0.000193373 0)
(0.508955 0.000186568 0)
(0.506267 0.000178905 0)
(0.50419 0.000167004 0)
(0.501629 0.000163303 0)
(0.49973 0.000154108 0)
(0.497227 0.000149257 0)
(0.495417 0.000143678 0)
(0.493007 0.000138139 0)
(0.491396 0.000123213 0)
(0.489111 0.000119202 0)
(0.487664 0.00011434 0)
(0.485418 0.000114396 0)
(0.484064 0.000109486 0)
(0.48191 0.000101182 0)
(0.480777 8.37058e-05 0)
(0.478719 8.39913e-05 0)
(0.477739 8.57603e-05 0)
(0.475751 8.18114e-05 0)
(0.474935 6.77136e-05 0)
(0.473 6.91942e-05 0)
(0.472348 6.58381e-05 0)
(0.470454 6.33994e-05 0)
(0.469972 5.3286e-05 0)
(0.468124 5.45091e-05 0)
(0.467824 4.83465e-05 0)
(0.465999 4.84774e-05 0)
(0.465874 4.10204e-05 0)
(0.464063 4.2778e-05 0)
(0.464116 3.64134e-05 0)
(0.462305 3.75785e-05 0)
(0.462534 3.10425e-05 0)
(0.460705 3.36744e-05 0)
(0.461121 2.69171e-05 0)
(0.45926 2.90594e-05 0)
(0.459863 2.26916e-05 0)
(0.457947 2.64542e-05 0)
(0.458751 1.92718e-05 0)
(0.456766 2.26969e-05 0)
(0.45778 1.6013e-05 0)
(0.455705 2.02884e-05 0)
(0.456936 1.32951e-05 0)
(0.454748 1.77012e-05 0)
(0.456205 1.10799e-05 0)
(0.453887 1.56228e-05 0)
(0.455589 8.65872e-06 0)
(0.45312 1.37353e-05 0)
(0.455077 6.91899e-06 0)
(0.452435 1.25609e-05 0)
(0.454651 5.42993e-06 0)
(0.451819 1.14442e-05 0)
(0.4543 4.05995e-06 0)
(0.451263 1.03176e-05 0)
(0.454017 2.66496e-06 0)
(0.450763 9.33503e-06 0)
(0.453802 1.35471e-06 0)
(0.450315 8.75908e-06 0)
(0.453646 2.65667e-07 0)
(0.449916 8.49612e-06 0)
(0.453541 -5.81148e-07 0)
(0.449559 8.35079e-06 0)
(0.453476 -1.22432e-06 0)
(0.449237 8.50429e-06 0)
(0.453441 -1.70924e-06 0)
(0.448938 9.25841e-06 0)
(0.453423 -1.88815e-06 0)
(0.448652 1.07081e-05 0)
(0.453403 -1.40642e-06 0)
(0.448361 1.30642e-05 0)
(0.453355 1.63408e-07 0)
(0.448039 1.69447e-05 0)
(0.453241 3.53778e-06 0)
(0.447639 2.36022e-05 0)
(0.452991 1.04175e-05 0)
(0.447077 3.52316e-05 0)
(0.452477 2.5859e-05 0)
(0.446163 5.64544e-05 0)
(0.451436 6.37104e-05 0)
(0.444418 0.000105737 0)
(0.449212 0.000151085 0)