/*--------------------------------*- C++ -*----------------------------------*\
| =========                 |                                                 |
| \\      /  F ield         | OpenFOAM: The Open Source CFD Toolbox           |
|  \\    /   O peration     | Version:  v2012                                 |
|   \\  /    A nd           | Website:  www.openfoam.com                      |
|    \\/     M anipulation  |                                                 |
\*---------------------------------------------------------------------------*/
FoamFile
{
    version     2.0;
    format      ascii;
    class       volScalarField;
    location    "0.4";
    object      p;
}
// * * * * * * * * * * * * * * * * * * * * * * * * * * * * * * * * * * * * * //

dimensions      [0 2 -2 0 0 0 0];


internalField   nonuniform List<scalar> 
8800
(
5.58381e-11
0.000692206
0.00078491
0.000859846
0.000851277
0.00085478
0.000740341
0.000709246
0.000569288
0.000376187
0.000109668
-0.000236383
-0.000579542
-0.00097209
-0.00144491
-0.00192644
-0.00254415
-0.00324794
-0.00420276
-0.00595913
3.30756e-06
0.000689766
0.00078525
0.00085821
0.000853772
0.000852627
0.000744538
0.000706286
0.000571188
0.000375699
0.000111873
-0.000240089
-0.000576568
-0.000974272
-0.0014448
-0.00194028
-0.00254216
-0.00334207
-0.0043333
-0.00637555
9.29151e-06
0.000684339
0.000786971
0.000854513
0.000859043
0.000845424
0.000751279
0.000700764
0.000570416
0.000382401
0.000102135
-0.000233259
-0.000576635
-0.000974897
-0.00144461
-0.00197148
-0.00261526
-0.00340405
-0.00430045
-0.00612685
1.53178e-05
0.000678732
0.000786097
0.000853521
0.000861395
0.000849264
0.00075266
0.0007073
0.000558573
0.000400373
7.90189e-05
-0.000214311
-0.000587575
-0.000979068
-0.0014377
-0.00196896
-0.00278337
-0.003791
-0.00509053
-0.00618511
2.5371e-05
0.000667248
0.000789807
0.000846772
0.000870921
0.000833683
0.000770136
0.000686391
0.000581574
0.000387587
9.31359e-05
-0.000216229
-0.000586768
-0.000994549
-0.00145416
-0.00198105
-0.00263836
-0.00344157
-0.00446709
-0.00662392
3.5937e-05
0.000655018
0.000789446
0.000844239
0.000875067
0.000840563
0.000772247
0.000693504
0.000582835
0.000384984
9.83088e-05
-0.000220873
-0.000596357
-0.000997908
-0.00143933
-0.00198337
-0.00263089
-0.00361979
-0.00499386
-0.00756648
4.96035e-05
0.000638635
0.000790921
0.000840061
0.000880841
0.000837315
0.00077338
0.000699955
0.000577201
0.000392136
9.96131e-05
-0.000228838
-0.000606666
-0.00100279
-0.00146335
-0.0019871
-0.0026602
-0.00359867
-0.00506929
-0.00776289
6.79008e-05
0.000614229
0.000791629
0.000833906
0.000896414
0.000841443
0.000769571
0.000709742
0.000574979
0.000392206
0.000106239
-0.000244028
-0.000615241
-0.00101638
-0.00146822
-0.00200344
-0.00268376
-0.00367173
-0.00526348
-0.0081515
8.68561e-05
0.000597973
0.000783557
0.000837419
0.000880618
0.000868356
0.000758869
0.000719279
0.000579741
0.000377146
0.000124375
-0.000259717
-0.000623553
-0.00102824
-0.0014825
-0.00202695
-0.00273986
-0.00377417
-0.00546572
-0.0084971
0.000112055
0.000568316
0.000779694
0.000831482
0.000891395
0.000869356
0.000769839
0.000716394
0.000593999
0.000380082
9.64072e-05
-0.000256506
-0.000642559
-0.00105183
-0.00150563
-0.00205933
-0.00280354
-0.00389098
-0.00565895
-0.00878596
0.000137187
0.000550319
0.000756217
0.000835858
0.000886703
0.00087701
0.000799341
0.000697789
0.000601642
0.000389637
6.62243e-05
-0.000260876
-0.000649512
-0.00107563
-0.00153701
-0.00210062
-0.00287713
-0.00401977
-0.00585501
-0.00906195
0.000168382
0.000526067
0.000729094
0.000836055
0.000884876
0.000892468
0.000814476
0.000699536
0.000601808
0.000389564
5.93608e-05
-0.000289465
-0.000664285
-0.00109805
-0.00157489
-0.00215331
-0.00296191
-0.00415544
-0.00605173
-0.00932251
0.000198048
0.000509261
0.000699
0.000825601
0.000897519
0.000891974
0.000833494
0.000722633
0.00057893
0.000382642
6.09384e-05
-0.000314208
-0.000689987
-0.0011224
-0.00161676
-0.00221622
-0.00305375
-0.00429379
-0.00624519
-0.00956961
0.000226905
0.00049908
0.000662821
0.000804234
0.000910184
0.000892747
0.000849445
0.000747636
0.000569591
0.000365444
5.77308e-05
-0.000330449
-0.000721332
-0.00115456
-0.00166391
-0.00228745
-0.00315243
-0.00443373
-0.0064318
-0.00979544
0.000255226
0.000492144
0.000637008
0.00076828
0.000917357
0.000910753
0.000847648
0.000775149
0.00057604
0.000336967
3.93941e-05
-0.000341935
-0.00074929
-0.00119362
-0.00171727
-0.00236504
-0.00325629
-0.00457288
-0.00661142
-0.0100114
0.000278638
0.00049171
0.000616276
0.000725359
0.000907164
0.000935257
0.000853772
0.000782918
0.000601665
0.00031935
7.37609e-06
-0.000361465
-0.000773687
-0.00123325
-0.00177464
-0.00244637
-0.00336357
-0.00471126
-0.00678674
-0.0102196
0.000301372
0.000490317
0.000603439
0.000685511
0.000874952
0.000959233
0.000869626
0.000777324
0.000618425
0.000321163
-2.27878e-05
-0.000391558
-0.000802908
-0.00127373
-0.00183342
-0.00253058
-0.00347397
-0.00484851
-0.0069541
-0.0104148
0.00032245
0.000486281
0.000601628
0.000652618
0.00082638
0.000963508
0.000896668
0.000778307
0.000622835
0.000331902
-4.09629e-05
-0.000427539
-0.00083956
-0.00131682
-0.00189324
-0.00261512
-0.00358374
-0.0049809
-0.00711255
-0.0106003
0.000341365
0.00048158
0.000596899
0.000632755
0.00077287
0.000943079
0.000921533
0.000791059
0.000620809
0.000338667
-4.62507e-05
-0.000457599
-0.000881521
-0.00136435
-0.0019549
-0.00269893
-0.00369071
-0.00510844
-0.00726212
-0.0107727
0.000359129
0.000475505
0.000588692
0.000626606
0.000725744
0.000895207
0.000927543
0.000813736
0.000627715
0.000342004
-4.84753e-05
-0.000479568
-0.000921542
-0.0014151
-0.00201782
-0.00278104
-0.00379422
-0.00523015
-0.00740115
-0.0109306
0.000374475
0.000469267
0.000576174
0.000622601
0.00069264
0.000834834
0.00090537
0.000830721
0.000646841
0.000352092
-4.70714e-05
-0.000493607
-0.00095485
-0.00146371
-0.00207944
-0.00286059
-0.0038933
-0.0053446
-0.00752846
-0.0110732
0.000386765
0.000464076
0.000558995
0.000614509
0.000673966
0.000780156
0.000852202
0.000825811
0.000670997
0.000374779
-3.6872e-05
-0.0005007
-0.000980857
-0.00150575
-0.00213622
-0.00293442
-0.00398573
-0.00545111
-0.00764511
-0.0112004
0.000393237
0.000461065
0.000539969
0.000598665
0.000662372
0.00073669
0.000789792
0.000791116
0.000683483
0.000408062
-1.15544e-05
-0.000495643
-0.000996855
-0.00153738
-0.00218212
-0.00299739
-0.00406722
-0.00554788
-0.0077504
-0.011312
0.00039575
0.000457429
0.00052056
0.000575245
0.000645515
0.000705158
0.000732331
0.000735087
0.000671043
0.000440202
3.10951e-05
-0.000471938
-0.000998184
-0.00155646
-0.00221287
-0.00304313
-0.00413207
-0.00562945
-0.00784136
-0.0114073
0.000394108
0.00044937
0.00050238
0.000546549
0.000619911
0.000677453
0.000684287
0.000674833
0.000632873
0.000456074
8.3527e-05
-0.000425877
-0.000979048
-0.00155906
-0.00222555
-0.00306503
-0.00417055
-0.00568638
-0.0079111
-0.0114837
0.000387324
0.000438096
0.000482223
0.000516271
0.000585061
0.000644493
0.000646187
0.000618379
0.000581676
0.000451781
0.000132615
-0.000359436
-0.000932435
-0.00153778
-0.00221682
-0.00306124
-0.00417641
-0.00570843
-0.00794826
-0.0115301
0.00037561
0.000422455
0.000458172
0.000483717
0.000543518
0.000602273
0.000609143
0.000569751
0.000527289
0.000429995
0.000170251
-0.00028053
-0.000853284
-0.00148137
-0.00217887
-0.00302961
-0.00414892
-0.0056889
-0.00793845
-0.0115264
0.000359494
0.000400643
0.000429509
0.000448086
0.00049605
0.000551523
0.000566015
0.00052551
0.000476102
0.000398798
0.000193827
-0.000200064
-0.000743514
-0.00137686
-0.00209381
-0.00296508
-0.00410205
-0.00566347
-0.00793484
-0.0115379
0.000337651
0.000372173
0.000395375
0.000408872
0.00044278
0.000492708
0.000514168
0.000477531
0.000426436
0.000364912
0.000207205
-0.000126366
-0.000622805
-0.00122269
-0.00190735
-0.00273796
-0.00384085
-0.00539187
-0.007682
-0.0113209
0.000309519
0.000336326
0.000355064
0.000365662
0.000383724
0.000426415
0.000451415
0.000420386
0.000370947
0.000328014
0.000222199
-4.57239e-05
-0.000514565
-0.00114035
-0.00187723
-0.00273974
-0.00382698
-0.00532676
-0.00756267
-0.0111573
0.000276156
0.000291051
0.00030752
0.000317202
0.000318738
0.000352803
0.000378551
0.000355114
0.000298518
0.000252227
0.000210502
9.1394e-05
-0.000187421
-0.000641148
-0.00125461
-0.00204776
-0.0031189
-0.00465541
-0.00697013
-0.0106976
0.000232992
0.000239848
0.000252046
0.000262179
0.000250566
0.000268673
0.000291302
0.000292691
0.000237241
0.000134754
-7.73696e-06
-0.000214796
-0.000536146
-0.000991832
-0.00155599
-0.00221163
-0.0030139
-0.00413604
-0.00593863
-0.00914482
0.000184225
0.000178747
0.000187467
0.000197045
0.000186443
0.00017576
0.00017075
0.000171341
0.000195858
0.000261905
0.000351914
0.000418205
0.000385637
0.000176152
-0.000253606
-0.000934834
-0.00195082
-0.00348359
-0.00587078
-0.00975651
0.000122368
0.000113582
0.000113348
0.000116748
0.000116683
0.000123604
0.000120565
1.65053e-05
-0.000203236
-0.000540104
-0.000948585
-0.00138222
-0.00178771
-0.00211105
-0.00228008
-0.00220011
-0.00173942
-0.000673491
0.00136672
0.00521021
5.17857e-05
4.08854e-05
3.56459e-05
2.40572e-05
-9.85106e-06
-2.76625e-05
2.65124e-05
0.000194142
0.000427627
0.000687248
0.000939466
0.00112952
0.00117716
0.000993969
0.000529878
-0.000264638
-0.00145892
-0.00321714
-0.00586264
-0.0101281
-2.66672e-05
-4.36906e-05
-5.23403e-05
-5.00488e-05
-4.81815e-05
-9.63907e-05
-0.000223145
-0.000430965
-0.000721681
-0.00104776
-0.00133565
-0.00150603
-0.00147436
-0.00129873
-0.000884163
-0.000197258
0.000876261
0.0025062
0.00503984
0.00911726
-0.00011447
-0.000125566
-0.000167228
-0.000214049
-0.00023291
-0.000173139
2.52691e-05
0.000343717
0.000736748
0.00113692
0.00147228
0.00167439
0.00166763
0.00149924
0.00106136
0.000314144
-0.000844131
-0.00257075
-0.00519595
-0.00935112
-0.000194074
-0.000211596
-0.000238501
-0.000281101
-0.000349755
-0.000461224
-0.00062223
-0.00080835
-0.000976595
-0.00108026
-0.00107398
-0.000908045
-0.000544638
4.5075e-05
0.00086301
0.00193374
0.00332321
0.00519987
0.00788382
0.0120778
-0.000276652
-0.000296901
-0.000375593
-0.000468439
-0.000504773
-0.000445629
-0.000266648
4.96399e-05
0.000481259
0.000975511
0.00146626
0.00188738
0.00219193
0.00234566
0.00230964
0.00201516
0.0013596
0.000138095
-0.00201892
-0.0058956
-0.000320924
-0.000349483
-0.000458901
-0.000619618
-0.000819342
-0.0010418
-0.0012483
-0.00139575
-0.00142845
-0.00129207
-0.000942013
-0.000347221
0.000515553
0.00166288
0.00310286
0.00485243
0.00692075
0.00937027
0.012412
0.0166174
-0.00761486
-0.00685419
-0.00414884
-0.0014954
0.000569188
0.00199562
0.00285397
0.00322579
0.0031775
0.00278642
0.00216225
0.00143607
0.000723469
9.91822e-05
-0.000404172
-0.000784049
-0.00105677
-0.00124721
-0.00138044
-0.00148226
-0.00157821
-0.00168912
-0.00182347
-0.00197946
-0.00215389
-0.00234733
-0.00256165
-0.00279613
-0.00304874
-0.00331666
-0.00359779
-0.00388842
-0.00418322
-0.0044788
-0.00477303
-0.00506671
-0.00536214
-0.00566602
-0.00598831
-0.00633195
-0.00669944
-0.00708834
-0.00749197
-0.00790247
-0.00830788
-0.00871269
-0.00913348
-0.00959439
-0.0101222
-0.0107141
-0.0113318
-0.0119083
-0.0123791
-0.0127143
-0.0129376
-0.0131304
-0.0133761
-0.0137049
-0.0140622
-0.0143559
-0.0145115
-0.0145044
-0.0143813
-0.0142336
-0.0141444
-0.0141576
-0.014257
-0.0143825
-0.0144861
-0.0145649
-0.0146587
-0.0148069
-0.0150039
-0.0152148
-0.0154127
-0.0155935
-0.0157815
-0.0160038
-0.0162516
-0.0164943
-0.0167234
-0.0169553
-0.017206
-0.0174811
-0.0177712
-0.0180498
-0.018304
-0.0185567
-0.0188254
-0.0190919
-0.0193437
-0.019599
-0.0198672
-0.0201341
-0.0203958
-0.0206648
-0.0209428
-0.0212228
-0.0215066
-0.021796
-0.0220828
-0.0223636
-0.0226456
-0.0229326
-0.0232206
-0.0235112
-0.0238086
-0.0241092
-0.0244059
-0.0247015
-0.0250032
-0.025311
-0.0256194
-0.0259274
-0.026238
-0.0265531
-0.0268716
-0.0271924
-0.0275159
-0.027842
-0.0281711
-0.0285032
-0.0288393
-0.0291788
-0.0295221
-0.0298679
-0.0302168
-0.0305678
-0.0309222
-0.03128
-0.0316425
-0.0320094
-0.0323816
-0.0327587
-0.0331404
-0.0335269
-0.033917
-0.0343114
-0.034709
-0.0351109
-0.035516
-0.0359254
-0.0363383
-0.0367553
-0.0371762
-0.0376008
-0.0380298
-0.0384624
-0.0388998
-0.0393409
-0.0397868
-0.0402368
-0.0406914
-0.0411505
-0.0416136
-0.0420816
-0.0425533
-0.04303
-0.0435105
-0.0439958
-0.0444853
-0.0449792
-0.0454777
-0.0459806
-0.046488
-0.0470003
-0.0475165
-0.0480386
-0.0485638
-0.0490953
-0.0496302
-0.0501709
-0.0507161
-0.0512658
-0.0518212
-0.0523806
-0.0529456
-0.0535157
-0.0540896
-0.0546709
-0.0552536
-0.0558457
-0.0564382
-0.0570396
-0.0576432
-0.0582523
-0.0588674
-0.059484
-0.0601074
-0.0607343
-0.0613601
-0.0619969
-0.0626224
-0.0632578
-0.06388
-0.0644962
-0.0650846
-0.0656549
-0.0661277
-0.0665599
-0.0082108
-0.00729156
-0.00442344
-0.00168072
0.000482537
0.00201489
0.00294136
0.00332185
0.00323925
0.00280545
0.00215421
0.00141869
0.000706318
8.48245e-05
-0.000417114
-0.000797628
-0.00107206
-0.00126417
-0.0013983
-0.00149986
-0.00159444
-0.00170379
-0.00183692
-0.00199224
-0.00216605
-0.00235886
-0.00257298
-0.00280743
-0.00306009
-0.00332821
-0.00360983
-0.00390115
-0.00419691
-0.00449308
-0.00478752
-0.00508128
-0.00537622
-0.00567832
-0.00599774
-0.00633897
-0.00670381
-0.00708973
-0.00749208
-0.00790377
-0.0083117
-0.00871754
-0.00913601
-0.00959038
-0.0101086
-0.0106928
-0.0113065
-0.0118831
-0.0123546
-0.0126879
-0.0129102
-0.0131014
-0.0133486
-0.0136803
-0.0140418
-0.0143383
-0.0144964
-0.0144908
-0.0143684
-0.0142228
-0.0141361
-0.0141517
-0.0142526
-0.0143781
-0.0144812
-0.0145596
-0.0146538
-0.0148036
-0.0150016
-0.0152126
-0.0154103
-0.0155908
-0.0157793
-0.0160025
-0.0162505
-0.0164927
-0.0167213
-0.0169529
-0.0172034
-0.0174785
-0.0177688
-0.0180476
-0.0183018
-0.0185547
-0.0188238
-0.0190904
-0.0193419
-0.0195973
-0.0198659
-0.020133
-0.0203947
-0.0206638
-0.020942
-0.0212221
-0.0215059
-0.0217954
-0.0220824
-0.0223631
-0.0226451
-0.0229322
-0.0232203
-0.0235109
-0.0238084
-0.0241091
-0.0244058
-0.0247014
-0.0250031
-0.025311
-0.0256194
-0.0259274
-0.0262381
-0.0265532
-0.0268717
-0.0271926
-0.027516
-0.0278421
-0.0281713
-0.0285033
-0.0288395
-0.0291789
-0.0295223
-0.0298681
-0.030217
-0.030568
-0.0309225
-0.0312802
-0.0316427
-0.0320096
-0.0323817
-0.0327588
-0.0331405
-0.0335269
-0.033917
-0.0343115
-0.034709
-0.0351109
-0.035516
-0.0359254
-0.0363383
-0.0367553
-0.0371761
-0.0376008
-0.0380298
-0.0384624
-0.0388998
-0.0393408
-0.0397868
-0.0402368
-0.0406914
-0.0411505
-0.0416136
-0.0420816
-0.0425533
-0.04303
-0.0435105
-0.0439958
-0.0444853
-0.0449792
-0.0454777
-0.0459806
-0.046488
-0.0470003
-0.0475165
-0.0480386
-0.0485638
-0.0490953
-0.0496302
-0.0501709
-0.0507161
-0.0512658
-0.0518212
-0.0523806
-0.0529456
-0.0535157
-0.0540896
-0.0546709
-0.0552536
-0.0558457
-0.0564382
-0.0570396
-0.0576432
-0.0582523
-0.0588674
-0.059484
-0.0601074
-0.0607343
-0.0613601
-0.0619969
-0.0626224
-0.0632579
-0.06388
-0.0644964
-0.0650847
-0.0656555
-0.0661295
-0.0665613
-0.00820685
-0.00770609
-0.00508066
-0.00228159
0.000140217
0.00194566
0.00305685
0.00348701
0.0033528
0.00284102
0.00213669
0.00138225
0.000671829
5.83921e-05
-0.000437216
-0.000815412
-0.00109057
-0.00128448
-0.00141985
-0.0015212
-0.00161405
-0.00172104
-0.00185242
-0.00200646
-0.00217939
-0.00237145
-0.00258525
-0.00282004
-0.00307318
-0.00334192
-0.00362469
-0.00391768
-0.00421513
-0.00451279
-0.00480842
-0.00510289
-0.00539799
-0.00569901
-0.00601461
-0.00635084
-0.0067104
-0.00709096
-0.00748964
-0.00790089
-0.00831216
-0.00871989
-0.00913734
-0.00958994
-0.0100992
-0.0106641
-0.0112541
-0.0118092
-0.012268
-0.0126013
-0.0128343
-0.01304
-0.0132953
-0.0136241
-0.0139749
-0.0142609
-0.0144176
-0.0144234
-0.0143214
-0.014197
-0.0141257
-0.0141479
-0.0142478
-0.0143701
-0.0144738
-0.0145585
-0.0146587
-0.0148097
-0.0150059
-0.0152146
-0.0154117
-0.0155937
-0.0157833
-0.0160056
-0.0162515
-0.0164923
-0.0167209
-0.0169534
-0.0172042
-0.0174783
-0.0177672
-0.0180452
-0.0182996
-0.0185527
-0.0188215
-0.019088
-0.01934
-0.0195957
-0.0198643
-0.0201315
-0.0203933
-0.0206624
-0.0209405
-0.0212205
-0.021504
-0.0217933
-0.0220802
-0.0223612
-0.0226435
-0.0229308
-0.0232191
-0.0235097
-0.0238071
-0.0241077
-0.0244045
-0.0247003
-0.0250021
-0.02531
-0.0256185
-0.0259265
-0.0262373
-0.0265525
-0.026871
-0.0271919
-0.0275154
-0.0278416
-0.0281708
-0.0285029
-0.028839
-0.0291786
-0.029522
-0.0298678
-0.0302168
-0.0305678
-0.0309223
-0.0312801
-0.0316427
-0.0320096
-0.0323817
-0.0327588
-0.0331405
-0.033527
-0.033917
-0.0343115
-0.034709
-0.035111
-0.035516
-0.0359255
-0.0363383
-0.0367553
-0.0371762
-0.0376009
-0.0380299
-0.0384625
-0.0388998
-0.0393409
-0.0397868
-0.0402369
-0.0406914
-0.0411505
-0.0416136
-0.0420816
-0.0425533
-0.04303
-0.0435105
-0.0439958
-0.0444853
-0.0449792
-0.0454778
-0.0459806
-0.046488
-0.0470004
-0.0475165
-0.0480386
-0.0485638
-0.0490953
-0.0496302
-0.0501709
-0.0507161
-0.0512658
-0.0518212
-0.0523806
-0.0529456
-0.0535157
-0.0540896
-0.0546709
-0.0552536
-0.0558457
-0.0564382
-0.0570396
-0.0576432
-0.0582523
-0.0588674
-0.059484
-0.0601075
-0.0607344
-0.0613601
-0.0619971
-0.0626226
-0.0632582
-0.0638804
-0.0644971
-0.0650858
-0.0656574
-0.0661367
-0.0665679
-0.00608824
-0.00631394
-0.00555137
-0.00326421
-0.00049204
0.00174222
0.00310198
0.00358477
0.00339642
0.00281428
0.00206567
0.00129848
0.000595662
-3.30195e-06
-0.000485983
-0.000856502
-0.00112873
-0.00132225
-0.00145736
-0.0015573
-0.00164721
-0.00175043
-0.00187858
-0.00202977
-0.00220066
-0.00239105
-0.00260412
-0.00283925
-0.00309314
-0.0033631
-0.00364769
-0.0039431
-0.00424286
-0.00454272
-0.0048396
-0.00513424
-0.00542832
-0.00572596
-0.00603538
-0.00636387
-0.00671667
-0.00709183
-0.00748707
-0.00789882
-0.00831394
-0.00872611
-0.00914489
-0.00959279
-0.0100874
-0.0106248
-0.0111826
-0.0117144
-0.0121622
-0.0124996
-0.0127499
-0.0129735
-0.0132341
-0.013554
-0.0138906
-0.0141675
-0.0143259
-0.0143468
-0.0142684
-0.0141685
-0.014115
-0.014144
-0.014242
-0.0143605
-0.014466
-0.0145574
-0.0146624
-0.0148137
-0.0150072
-0.0152131
-0.0154097
-0.0155936
-0.0157846
-0.0160066
-0.016251
-0.0164908
-0.0167205
-0.0169546
-0.0172054
-0.0174774
-0.0177629
-0.0180385
-0.0182931
-0.0185468
-0.0188153
-0.0190818
-0.0193346
-0.0195907
-0.0198592
-0.0201267
-0.0203891
-0.0206584
-0.0209366
-0.0212168
-0.0215001
-0.0217889
-0.0220757
-0.0223571
-0.0226398
-0.0229274
-0.023216
-0.0235068
-0.023804
-0.0241045
-0.0244016
-0.024698
-0.025
-0.0253078
-0.0256163
-0.0259246
-0.0262356
-0.0265509
-0.0268695
-0.0271905
-0.0275142
-0.0278405
-0.0281699
-0.0285022
-0.0288384
-0.029178
-0.0295215
-0.0298674
-0.0302164
-0.0305676
-0.0309222
-0.0312802
-0.031643
-0.0320099
-0.0323821
-0.0327592
-0.0331408
-0.0335272
-0.0339172
-0.0343116
-0.0347091
-0.035111
-0.035516
-0.0359255
-0.0363383
-0.0367554
-0.0371762
-0.0376009
-0.0380299
-0.0384625
-0.0388999
-0.0393409
-0.0397869
-0.0402369
-0.0406914
-0.0411505
-0.0416136
-0.0420816
-0.0425533
-0.04303
-0.0435105
-0.0439958
-0.0444853
-0.0449792
-0.0454777
-0.0459806
-0.046488
-0.0470004
-0.0475165
-0.0480386
-0.0485638
-0.0490953
-0.0496302
-0.0501709
-0.0507161
-0.0512658
-0.0518212
-0.0523806
-0.0529456
-0.0535157
-0.0540896
-0.0546709
-0.0552536
-0.0558457
-0.0564382
-0.0570397
-0.0576432
-0.0582523
-0.0588674
-0.0594841
-0.0601075
-0.0607345
-0.0613602
-0.0619973
-0.0626229
-0.0632586
-0.0638812
-0.0644982
-0.0650881
-0.0656605
-0.0661478
-0.0665788
-0.00898604
-0.00861273
-0.00595729
-0.00284293
-1.93233e-05
0.00207809
0.0033128
0.00370765
0.00345883
0.00283316
0.00205503
0.00127263
0.000566195
-2.98607e-05
-0.000507907
-0.000875572
-0.00114768
-0.00134269
-0.00147943
-0.00157963
-0.00166829
-0.00176906
-0.00189468
-0.00204375
-0.00221303
-0.00240239
-0.00261553
-0.00285196
-0.00310767
-0.00338028
-0.00366785
-0.00396624
-0.00426899
-0.004571
-0.00486824
-0.00516228
-0.00545417
-0.00574677
-0.00604943
-0.00637102
-0.00671815
-0.00708949
-0.00748356
-0.00789621
-0.00831437
-0.00873141
-0.00915034
-0.00958764
-0.0100588
-0.0105641
-0.0110941
-0.0116091
-0.0120511
-0.0123969
-0.0126652
-0.0129015
-0.0131602
-0.0134682
-0.0137929
-0.014065
-0.0142285
-0.0142656
-0.014211
-0.0141351
-0.0140986
-0.0141336
-0.0142304
-0.0143478
-0.0144558
-0.0145529
-0.0146629
-0.0148151
-0.0150067
-0.0152107
-0.0154072
-0.015593
-0.0157859
-0.0160079
-0.0162507
-0.0164892
-0.0167193
-0.0169544
-0.0172046
-0.0174741
-0.0177562
-0.0180298
-0.018285
-0.0185399
-0.018808
-0.0190744
-0.0193284
-0.0195849
-0.0198532
-0.0201214
-0.0203846
-0.020654
-0.0209323
-0.0212126
-0.0214953
-0.0217832
-0.0220699
-0.0223518
-0.0226349
-0.0229229
-0.0232119
-0.023503
-0.0238
-0.0241003
-0.0243978
-0.0246946
-0.0249968
-0.0253045
-0.0256132
-0.0259218
-0.0262331
-0.0265486
-0.0268674
-0.0271885
-0.0275123
-0.0278388
-0.0281683
-0.0285008
-0.0288372
-0.0291769
-0.0295203
-0.0298663
-0.0302154
-0.0305668
-0.0309217
-0.0312799
-0.0316426
-0.0320099
-0.0323822
-0.0327592
-0.0331409
-0.0335272
-0.0339172
-0.0343116
-0.0347091
-0.035111
-0.035516
-0.0359255
-0.0363383
-0.0367554
-0.0371763
-0.037601
-0.03803
-0.0384626
-0.0389
-0.0393411
-0.0397871
-0.040237
-0.0406916
-0.0411506
-0.0416137
-0.0420817
-0.0425533
-0.0430301
-0.0435106
-0.0439958
-0.0444853
-0.0449792
-0.0454778
-0.0459806
-0.046488
-0.0470004
-0.0475165
-0.0480386
-0.0485638
-0.0490953
-0.0496302
-0.0501709
-0.0507161
-0.0512658
-0.0518212
-0.0523806
-0.0529456
-0.0535157
-0.0540896
-0.0546709
-0.0552536
-0.0558458
-0.0564382
-0.0570397
-0.0576433
-0.0582524
-0.0588675
-0.0594842
-0.0601076
-0.0607346
-0.0613604
-0.0619976
-0.0626233
-0.0632591
-0.0638824
-0.0644996
-0.0650914
-0.0656646
-0.0661606
-0.0665925
-0.0098443
-0.00901606
-0.00563261
-0.00216894
0.000584296
0.00247299
0.00350025
0.00377232
0.0034699
0.00281877
0.00202657
0.00123612
0.000526315
-6.93656e-05
-0.000544928
-0.000910073
-0.00118087
-0.00137538
-0.00151171
-0.00161032
-0.0016963
-0.00179368
-0.00191605
-0.00206262
-0.00222975
-0.00241753
-0.00263019
-0.00286762
-0.00312518
-0.00340074
-0.00369147
-0.00399279
-0.00429827
-0.00460158
-0.00489835
-0.00519076
-0.0054802
-0.00576761
-0.0060638
-0.0063798
-0.00672183
-0.00709044
-0.00748368
-0.00789625
-0.008316
-0.0087343
-0.00915002
-0.00957309
-0.0100185
-0.0104962
-0.0110042
-0.0115054
-0.0119463
-0.0123021
-0.0125812
-0.0128213
-0.0130765
-0.0133752
-0.0136907
-0.0139604
-0.0141305
-0.0141835
-0.0141514
-0.0140985
-0.0140782
-0.0141193
-0.0142171
-0.0143353
-0.0144456
-0.0145479
-0.0146633
-0.0148168
-0.0150069
-0.0152089
-0.0154051
-0.0155927
-0.0157872
-0.0160088
-0.0162498
-0.0164867
-0.016717
-0.0169533
-0.0172033
-0.0174709
-0.0177501
-0.0180218
-0.0182775
-0.0185331
-0.0188005
-0.0190667
-0.0193218
-0.0195788
-0.019847
-0.0201157
-0.0203796
-0.020649
-0.0209272
-0.0212077
-0.02149
-0.0217771
-0.0220637
-0.0223462
-0.0226298
-0.022918
-0.0232074
-0.0234988
-0.0237955
-0.0240956
-0.0243934
-0.0246908
-0.0249932
-0.025301
-0.0256097
-0.0259187
-0.0262303
-0.026546
-0.0268648
-0.0271861
-0.0275101
-0.0278368
-0.0281666
-0.0284992
-0.0288358
-0.0291755
-0.0295191
-0.0298652
-0.0302145
-0.0305661
-0.0309213
-0.0312797
-0.0316427
-0.0320101
-0.0323824
-0.0327596
-0.0331412
-0.0335274
-0.0339173
-0.0343117
-0.0347091
-0.035111
-0.035516
-0.0359255
-0.0363384
-0.0367554
-0.0371763
-0.037601
-0.0380301
-0.0384627
-0.0389001
-0.0393412
-0.0397872
-0.0402372
-0.0406917
-0.0411507
-0.0416138
-0.0420818
-0.0425534
-0.0430301
-0.0435106
-0.0439958
-0.0444854
-0.0449792
-0.0454778
-0.0459806
-0.046488
-0.0470004
-0.0475165
-0.0480386
-0.0485638
-0.0490953
-0.0496302
-0.0501709
-0.0507161
-0.0512658
-0.0518212
-0.0523806
-0.0529456
-0.0535157
-0.0540896
-0.0546709
-0.0552537
-0.0558458
-0.0564382
-0.0570397
-0.0576433
-0.0582524
-0.0588676
-0.0594843
-0.0601078
-0.0607348
-0.0613607
-0.0619979
-0.062624
-0.0632597
-0.0638839
-0.0645011
-0.0650955
-0.0656694
-0.0661738
-0.0666077
-0.0102239
-0.00949101
-0.0059266
-0.00224298
0.000642741
0.00256991
0.00355754
0.00376572
0.00342398
0.00276158
0.00196814
0.00117701
0.000466211
-0.000129253
-0.000602972
-0.00096499
-0.00123247
-0.00142389
-0.00155709
-0.00165191
-0.00173337
-0.00182608
-0.00194444
-0.00208798
-0.00225228
-0.00243791
-0.00264943
-0.00288728
-0.00314695
-0.00342541
-0.00371942
-0.00402421
-0.00433207
-0.00463615
-0.00493204
-0.005222
-0.00550834
-0.00579093
-0.00608086
-0.00639026
-0.006727
-0.00709293
-0.00748412
-0.00789572
-0.00831506
-0.00873163
-0.00914161
-0.00954989
-0.00997538
-0.0104341
-0.0109227
-0.011409
-0.0118475
-0.0122082
-0.0124894
-0.012729
-0.0129845
-0.0132798
-0.0135886
-0.0138556
-0.0140316
-0.0140998
-0.0140891
-0.0140579
-0.014054
-0.014103
-0.0142035
-0.0143229
-0.0144348
-0.0145419
-0.0146626
-0.0148177
-0.0150063
-0.0152063
-0.0154022
-0.0155917
-0.0157878
-0.016009
-0.0162484
-0.0164842
-0.0167152
-0.0169526
-0.0172025
-0.0174682
-0.0177443
-0.0180136
-0.0182691
-0.0185252
-0.018792
-0.0190581
-0.0193143
-0.0195719
-0.01984
-0.0201093
-0.0203739
-0.0206433
-0.0209216
-0.0212023
-0.0214843
-0.0217706
-0.0220571
-0.0223401
-0.0226241
-0.0229125
-0.0232024
-0.023494
-0.0237906
-0.0240906
-0.0243888
-0.0246868
-0.0249894
-0.0252971
-0.025606
-0.0259153
-0.0262273
-0.0265431
-0.0268622
-0.0271836
-0.0275078
-0.0278347
-0.0281647
-0.0284976
-0.0288343
-0.0291742
-0.0295178
-0.029864
-0.0302134
-0.0305653
-0.0309207
-0.0312794
-0.0316426
-0.0320102
-0.0323825
-0.0327597
-0.0331413
-0.0335275
-0.0339173
-0.0343116
-0.0347091
-0.035111
-0.035516
-0.0359255
-0.0363384
-0.0367554
-0.0371763
-0.0376011
-0.0380301
-0.0384628
-0.0389002
-0.0393414
-0.0397873
-0.0402373
-0.0406918
-0.0411509
-0.0416139
-0.0420819
-0.0425535
-0.0430302
-0.0435106
-0.0439959
-0.0444854
-0.0449792
-0.0454778
-0.0459806
-0.046488
-0.0470004
-0.0475165
-0.0480386
-0.0485638
-0.0490953
-0.0496303
-0.0501709
-0.0507161
-0.0512658
-0.0518213
-0.0523806
-0.0529457
-0.0535158
-0.0540896
-0.054671
-0.0552537
-0.0558458
-0.0564383
-0.0570398
-0.0576434
-0.0582525
-0.0588677
-0.0594844
-0.0601079
-0.060735
-0.0613611
-0.0619982
-0.0626248
-0.0632603
-0.0638857
-0.0645028
-0.0651002
-0.065675
-0.066187
-0.0666238
-0.0107516
-0.0100748
-0.00640473
-0.00248071
0.000616679
0.00266937
0.00369485
0.00387918
0.00349136
0.0027877
0.0019649
0.00115413
0.000430736
-0.000171515
-0.000647246
-0.0010079
-0.0012727
-0.00146168
-0.00159245
-0.0016841
-0.0017613
-0.00184934
-0.00196404
-0.00210527
-0.00226767
-0.00245198
-0.00266281
-0.00290136
-0.00316378
-0.00344563
-0.00374355
-0.00405272
-0.00436358
-0.00466828
-0.00496315
-0.00525002
-0.00553215
-0.00581072
-0.0060949
-0.00639713
-0.00672875
-0.00709226
-0.00748178
-0.00789152
-0.00830895
-0.00872297
-0.00912588
-0.00952147
-0.00993374
-0.0103764
-0.0108432
-0.0113116
-0.0117413
-0.012099
-0.0123822
-0.0126279
-0.012889
-0.0131834
-0.0134848
-0.0137468
-0.0139276
-0.0140113
-0.0140219
-0.014012
-0.0140244
-0.0140822
-0.0141857
-0.0143064
-0.0144205
-0.0145325
-0.0146588
-0.014816
-0.0150037
-0.0152023
-0.0153981
-0.0155896
-0.0157873
-0.0160081
-0.0162462
-0.0164813
-0.0167125
-0.0169506
-0.0171999
-0.0174636
-0.0177369
-0.0180037
-0.0182591
-0.0185161
-0.0187829
-0.019049
-0.0193063
-0.0195644
-0.0198324
-0.0201022
-0.0203676
-0.020637
-0.0209153
-0.0211964
-0.0214779
-0.0217634
-0.0220498
-0.0223333
-0.0226178
-0.0229065
-0.0231968
-0.0234887
-0.0237852
-0.0240851
-0.0243837
-0.0246822
-0.024985
-0.0252927
-0.0256018
-0.0259115
-0.0262238
-0.0265399
-0.0268591
-0.0271807
-0.0275051
-0.0278322
-0.0281625
-0.0284956
-0.0288325
-0.0291725
-0.0295162
-0.0298625
-0.0302121
-0.0305642
-0.03092
-0.0312789
-0.0316424
-0.0320101
-0.0323826
-0.0327598
-0.0331414
-0.0335275
-0.0339174
-0.0343116
-0.034709
-0.0351109
-0.035516
-0.0359255
-0.0363384
-0.0367554
-0.0371764
-0.0376011
-0.0380302
-0.0384629
-0.0389004
-0.0393415
-0.0397875
-0.0402375
-0.040692
-0.041151
-0.041614
-0.042082
-0.0425536
-0.0430302
-0.0435107
-0.0439959
-0.0444854
-0.0449792
-0.0454778
-0.0459806
-0.046488
-0.0470004
-0.0475165
-0.0480386
-0.0485638
-0.0490953
-0.0496303
-0.0501709
-0.0507161
-0.0512658
-0.0518213
-0.0523807
-0.0529457
-0.0535158
-0.0540897
-0.054671
-0.0552538
-0.0558459
-0.0564384
-0.0570398
-0.0576435
-0.0582526
-0.0588678
-0.0594845
-0.0601082
-0.0607352
-0.0613615
-0.0619985
-0.0626258
-0.063261
-0.0638878
-0.0645048
-0.0651053
-0.0656814
-0.0662001
-0.0666407
-0.0111523
-0.0105016
-0.00675934
-0.00267351
0.000590179
0.00276835
0.00385873
0.00404026
0.00360657
0.00284656
0.00197646
0.00113249
0.000388051
-0.000225745
-0.000704983
-0.00106333
-0.00132316
-0.00150756
-0.0016349
-0.00172298
-0.00179512
-0.00187716
-0.00198669
-0.00212488
-0.00228576
-0.00246907
-0.00267947
-0.00291866
-0.00318342
-0.0034687
-0.0037705
-0.00408421
-0.00439844
-0.00470367
-0.00499674
-0.00527903
-0.00555568
-0.00582991
-0.0061091
-0.00640499
-0.00673092
-0.00709177
-0.00747952
-0.00788606
-0.00830058
-0.00871112
-0.00910761
-0.00949386
-0.00989352
-0.0103177
-0.0107619
-0.0112107
-0.0116268
-0.0119803
-0.0122718
-0.0125308
-0.0127978
-0.0130871
-0.0133778
-0.0136335
-0.0138193
-0.0139193
-0.0139524
-0.0139635
-0.0139914
-0.0140576
-0.0141645
-0.0142877
-0.0144055
-0.0145228
-0.014654
-0.014813
-0.0150005
-0.0151987
-0.0153944
-0.015587
-0.0157862
-0.0160071
-0.0162441
-0.0164781
-0.0167093
-0.0169478
-0.0171967
-0.0174589
-0.0177298
-0.0179948
-0.0182499
-0.0185077
-0.0187742
-0.0190402
-0.0192981
-0.0195565
-0.0198244
-0.020095
-0.020361
-0.0206302
-0.0209086
-0.0211901
-0.0214714
-0.021756
-0.0220424
-0.0223266
-0.0226115
-0.0229004
-0.0231912
-0.0234834
-0.0237797
-0.0240795
-0.0243785
-0.0246776
-0.0249807
-0.0252884
-0.0255977
-0.0259078
-0.0262204
-0.0265367
-0.0268561
-0.0271779
-0.0275025
-0.0278299
-0.0281604
-0.0284937
-0.0288308
-0.0291709
-0.0295148
-0.0298612
-0.0302111
-0.0305634
-0.0309194
-0.0312787
-0.0316423
-0.0320102
-0.0323828
-0.03276
-0.0331415
-0.0335276
-0.0339174
-0.0343116
-0.034709
-0.0351109
-0.0355159
-0.0359254
-0.0363384
-0.0367555
-0.0371764
-0.0376012
-0.0380303
-0.038463
-0.0389005
-0.0393417
-0.0397876
-0.0402377
-0.0406921
-0.0411511
-0.0416141
-0.042082
-0.0425536
-0.0430303
-0.0435107
-0.0439959