/*--------------------------------*- C++ -*----------------------------------*\
| =========                 |                                                 |
| \\      /  F ield         | OpenFOAM: The Open Source CFD Toolbox           |
|  \\    /   O peration     | Version:  v2012                                 |
|   \\  /    A nd           | Website:  www.openfoam.com                      |
|    \\/     M anipulation  |                                                 |
\*---------------------------------------------------------------------------*/
FoamFile
{
    version     2.0;
    format      ascii;
    class       surfaceScalarField;
    location    "0.4";
    object      phi;
}
// * * * * * * * * * * * * * * * * * * * * * * * * * * * * * * * * * * * * * //

dimensions      [0 3 -1 0 0 0 0];
oriented        oriented;


internalField   nonuniform List<scalar> 
17340
(
3.87661e-06
-1.21288e-07
3.88222e-06
8.75274e-08
3.87501e-06
-5.45475e-08
3.88307e-06
5.84895e-08
3.87784e-06
-4.66652e-08
3.88531e-06
2.29612e-08
3.87714e-06
-3.33735e-08
3.88505e-06
1.94625e-08
3.87686e-06
-1.85437e-08
3.88446e-06
2.17921e-08
3.88064e-06
-5.10884e-09
3.88379e-06
1.60673e-08
3.88149e-06
-7.07467e-09
3.88459e-06
7.84008e-09
3.88117e-06
-6.75202e-09
3.88373e-06
3.78086e-09
3.87951e-06
-2.36863e-09
3.8742e-06
6.95498e-09
3.86034e-06
1.76992e-08
2.60445e-08
3.84478e-06
4.1801e-06
-1.15531e-07
4.19142e-06
7.621e-08
4.18104e-06
-4.41696e-08
4.19185e-06
4.76787e-08
4.18434e-06
-3.91561e-08
4.1929e-06
1.44091e-08
4.18448e-06
-2.49526e-08
4.19179e-06
1.21471e-08
4.18532e-06
-1.20769e-08
4.18943e-06
1.76846e-08
4.191e-06
-6.68145e-09
4.18913e-06
1.79451e-08
4.19518e-06
-1.31237e-08
4.19168e-06
1.13365e-08
4.19499e-06
-1.00667e-08
4.19111e-06
7.66714e-09
4.1919e-06
-3.1571e-09
4.18084e-06
1.8008e-08
4.17591e-06
2.26277e-08
4.46085e-08
4.15735e-06
4.51318e-06
-1.08652e-07
4.52381e-06
6.55812e-08
4.51376e-06
-3.41188e-08
4.52241e-06
3.90265e-08
4.51464e-06
-3.13868e-08
4.52129e-06
7.75956e-09
4.51482e-06
-1.84832e-08
4.52058e-06
6.38757e-09
4.51534e-06
-6.83441e-09
4.52086e-06
1.21658e-08
4.51825e-06
-4.06806e-09
4.52082e-06
1.53721e-08
4.52071e-06
-1.3019e-08
4.51967e-06
1.23772e-08
4.52176e-06
-1.21527e-08
4.52239e-06
7.04153e-09
4.52321e-06
-3.98192e-09
4.50958e-06
3.16366e-08
4.49328e-06
3.89252e-08
6.10212e-08
4.47687e-06
4.87404e-06
-1.01747e-07
4.88464e-06
5.49815e-08
4.87424e-06
-2.37134e-08
4.88273e-06
3.05306e-08
4.87326e-06
-2.19173e-08
4.88101e-06
1.23751e-11
4.87244e-06
-9.91128e-09
4.88224e-06
-3.41687e-09
4.87114e-06
4.26722e-09
4.88695e-06
-3.6387e-09
4.87153e-06
1.13513e-08
4.89176e-06
-4.85977e-09
4.87514e-06
3.60012e-09
4.89135e-06
-3.83696e-09
4.87377e-06
5.42904e-09
4.88409e-06
-3.27681e-09
4.87797e-06
2.14096e-09
4.92965e-06
-2.00468e-08
4.98118e-06
-1.26009e-08
-5.30964e-09
5.04751e-06
5.26353e-06
-9.46314e-08
5.27457e-06
4.39433e-08
5.26449e-06
-1.36321e-08
5.27166e-06
2.33613e-08
5.26426e-06
-1.4517e-08
5.26682e-06
-2.5535e-09
5.26687e-06
-9.96157e-09
5.2633e-06
1.57569e-10
5.26971e-06
-2.14122e-09
5.26478e-06
1.285e-09
5.26896e-06
7.17526e-09
5.26793e-06
-3.82978e-09
5.26721e-06
4.31604e-09
5.26571e-06
-2.3356e-09
5.26843e-06
2.71226e-09
5.26791e-06
-2.75438e-09
5.26599e-06
4.0566e-09
5.25318e-06
-7.23564e-09
5.23832e-06
2.25477e-09
1.29785e-08
5.22004e-06
5.68403e-06
-8.72004e-08
5.69576e-06
3.22089e-08
5.68524e-06
-3.11183e-09
5.69267e-06
1.59299e-08
5.68445e-06
-6.29789e-09
5.68803e-06
-6.13286e-09
5.68652e-06
-8.4462e-09
5.68415e-06
2.53039e-09
5.69073e-06
-8.7226e-09
5.68367e-06
8.34033e-09
5.69348e-06
-2.63448e-09
5.68607e-06
3.57976e-09
5.69179e-06
-1.40047e-09
5.685e-06
4.45166e-09
5.68821e-06
-5.01091e-10
5.68159e-06
3.87036e-09
5.68551e-06
1.3405e-10
5.67435e-06
3.92899e-09
5.67102e-06
5.57898e-09
2.84146e-08
5.65559e-06
6.13823e-06
-7.95593e-08
6.15019e-06
2.02479e-08
6.14093e-06
6.14544e-09
6.14634e-06
1.05244e-08
6.14052e-06
-4.76077e-10
6.14037e-06
-5.98799e-09
6.14193e-06
-1.00078e-08
6.13879e-06
5.67601e-09
6.14158e-06
-1.1516e-08
6.14081e-06
9.11538e-09
6.14032e-06
-2.15198e-09
6.14189e-06
2.01415e-09
6.13884e-06
1.64871e-09
6.14058e-06
2.70863e-09
6.13753e-06
2.54719e-09
6.13764e-06
3.76704e-09
6.13367e-06
4.10251e-09
6.12852e-06
9.08306e-09
6.12053e-06
1.35679e-08
3.19566e-08
6.11698e-06
6.62901e-06
-7.20109e-08
6.64001e-06
9.24762e-09
6.63538e-06
1.07795e-08
6.63474e-06
1.11606e-08
6.63564e-06
-1.37438e-09
6.62688e-06
2.77028e-09
6.63505e-06
-1.81767e-08
6.62797e-06
1.27628e-08
6.63282e-06
-1.63716e-08
6.62971e-06
1.22256e-08
6.63228e-06
-4.71933e-09
6.62873e-06
5.55799e-09
6.6307e-06
-3.1672e-10
6.62821e-06
5.20034e-09
6.62786e-06
2.89404e-09
6.62504e-06
6.58741e-09
6.62232e-06
6.82532e-09
6.61783e-06
1.35685e-08
6.61171e-06
1.96881e-08
3.53047e-08
6.60836e-06
7.15883e-06
-6.44098e-08
7.17003e-06
-1.95147e-09
7.16535e-06
1.54555e-08
7.16677e-06
9.73959e-09
7.16148e-06
3.9183e-09
7.16446e-06
-2.05966e-10
7.15402e-06
-7.74349e-09
7.16942e-06
-2.63211e-09
7.15279e-06
2.60578e-10
7.16928e-06
-4.26363e-09
7.15928e-06
5.27266e-09
7.16176e-06
3.08164e-09
7.1587e-06
2.7451e-09
7.15812e-06
5.77788e-09
7.1551e-06
5.91242e-09
7.1533e-06
8.39114e-09
7.15004e-06
1.00819e-08
7.14694e-06
1.6674e-08
7.14391e-06
2.2714e-08
3.36677e-08
7.14555e-06
7.73166e-06
-5.74612e-08
7.73923e-06
-9.52568e-09
7.74194e-06
1.27444e-08
7.73412e-06
1.75631e-08
7.73878e-06
-7.41892e-10
7.73052e-06
8.05496e-09
7.73173e-06
-8.96123e-09
7.73398e-06
-4.87701e-09
7.72992e-06
4.31958e-09
7.7309e-06
-5.24751e-09
7.73175e-06
4.42897e-09
7.72931e-06
5.51975e-09
7.72864e-06
3.40998e-09
7.72785e-06
6.56837e-09
7.7261e-06
7.66679e-09
7.7238e-06
1.06937e-08
7.721e-06
1.2884e-08
7.71827e-06
1.94002e-08
7.71474e-06
2.62402e-08
3.69258e-08
7.71148e-06
8.34969e-06
-5.06881e-08
8.35686e-06
-1.67016e-08
8.35867e-06
1.09334e-08
8.35574e-06
2.04928e-08
8.35379e-06
1.21555e-09
8.35165e-06
1.01951e-08
8.34984e-06
-7.15579e-09
8.34607e-06
-1.10893e-09
8.35414e-06
-3.74761e-09
8.34471e-06
4.18153e-09
8.34915e-06
-8.41042e-12
8.34721e-06
7.45618e-09
8.34502e-06
5.59976e-09
8.34383e-06
7.76115e-09
8.34258e-06
8.91364e-09
8.34019e-06
1.30843e-08
8.33772e-06
1.53535e-08
8.33545e-06
2.16775e-08
8.33353e-06
2.81533e-08
3.58694e-08
8.33459e-06
9.01765e-06
-4.46898e-08
9.02006e-06
-1.91177e-08
9.02586e-06
5.13874e-09
9.02476e-06
2.15961e-08
9.01784e-06
8.12835e-09
9.0232e-06
4.83638e-09
9.01333e-06
2.71239e-09
9.01573e-06
-3.50662e-09
9.0169e-06
-4.91317e-09
9.01374e-06
7.34062e-09
9.0118e-06
1.92516e-09
9.01347e-06
5.78849e-09
9.01097e-06
8.09759e-09
9.00956e-06
9.17575e-09
9.00803e-06
1.04473e-08
9.00635e-06
1.47588e-08
9.00395e-06
1.77512e-08
9.00235e-06
2.32863e-08
9.0012e-06
2.92965e-08
3.60724e-08
9.001e-06
9.7386e-06
-3.91833e-08
9.73778e-06
-1.83038e-08
9.7449e-06
-1.98115e-09
9.74635e-06
2.01476e-08
9.73956e-06
1.49175e-08
9.74144e-06
2.95489e-09
9.7366e-06
7.55846e-09
9.73428e-06
-1.19427e-09
9.73405e-06
-4.67916e-09
9.73517e-06
6.21859e-09
9.73124e-06
5.86011e-09
9.73143e-06
5.593e-09
9.73056e-06
8.9744e-09
9.72873e-06
1.09983e-08
9.72709e-06
1.20898e-08
9.72569e-06
1.6162e-08
9.7237e-06
1.97347e-08
9.72257e-06
2.44254e-08
9.72245e-06
2.94144e-08
3.48535e-08
9.72367e-06
1.05169e-05
-3.40159e-08
1.05149e-05
-1.62881e-08
1.05194e-05
-6.48638e-09
1.05258e-05
1.37848e-08
1.05186e-05
2.21317e-08
1.0517e-05
4.4616e-09
1.05176e-05
7.00863e-09
1.05112e-05
5.17896e-09
1.05098e-05
-3.27651e-09
1.0512e-05
3.99925e-09
1.05092e-05
8.65789e-09
1.05073e-05
7.49135e-09
1.05069e-05
9.39376e-09
1.05056e-05
1.2321e-08
1.05039e-05
1.37494e-08
1.05027e-05
1.73908e-08
1.05013e-05
2.11373e-08
1.05006e-05
2.51759e-08
1.05004e-05
2.96165e-08
3.43279e-08
1.05009e-05
1.13574e-05
-2.92297e-08
1.13543e-05
-1.31889e-08
1.13573e-05
-9.50683e-09
1.13641e-05
6.97754e-09
1.13626e-05
2.3613e-08
1.13544e-05
1.27406e-08
1.13586e-05
2.80098e-09
1.13524e-05
1.1346e-08
1.13483e-05
8.07839e-10
1.13495e-05
2.83885e-09
1.13491e-05
9.05395e-09
1.13464e-05
1.01302e-08
1.13455e-05
1.03698e-08
1.13445e-05
1.32712e-08
1.13432e-05
1.50817e-08
1.13421e-05
1.84826e-08
1.13412e-05
2.20681e-08
1.13406e-05
2.56955e-08
1.13406e-05
2.96083e-08
3.49285e-08
1.134e-05
1.22645e-05
-2.43896e-08
1.22633e-05
-1.19698e-08
1.22605e-05
-6.6925e-09
1.22695e-05
-2.08853e-09
1.22706e-05
2.25676e-08
1.22633e-05
1.99778e-08
1.22621e-05
4.0537e-09
1.22615e-05
1.19652e-08
1.2255e-05
7.29357e-09
1.22539e-05
3.94701e-09
1.22545e-05
8.4264e-09
1.2253e-05
1.16117e-08
1.22513e-05
1.21237e-08
1.22504e-05
1.40983e-08
1.22494e-05
1.61268e-08
1.22486e-05
1.92333e-08
1.22481e-05
2.26071e-08
1.2248e-05
2.58297e-08
1.22486e-05
2.89903e-08
3.21043e-08
1.22514e-05
1.32442e-05
-1.96777e-08
1.32436e-05
-1.13359e-08
1.32396e-05
-2.69701e-09
1.32454e-05
-7.85598e-09
1.32504e-05
1.74863e-08
1.32454e-05
2.4988e-08
1.32392e-05
1.02694e-08
1.32403e-05
1.08577e-08
1.32355e-05
1.21579e-08
1.32317e-05
7.69293e-09
1.32319e-05
8.27727e-09
1.32315e-05
1.19483e-08
1.323e-05
1.36266e-08
1.3229e-05
1.51431e-08
1.32282e-05
1.68634e-08
1.32278e-05
1.96571e-08
1.32277e-05
2.27307e-08
1.32279e-05
2.56602e-08
1.32285e-05
2.83709e-08
3.21766e-08
1.32284e-05
1.43024e-05
-1.52931e-08
1.43021e-05
-1.1064e-08
1.42985e-05
8.37508e-10
1.42987e-05
-7.97688e-09
1.43068e-05
9.37244e-09
1.43047e-05
2.70232e-08
1.42972e-05
1.77705e-08
1.42956e-05
1.2505e-08
1.42934e-05
1.43837e-08
1.42891e-05
1.19577e-08
1.42876e-05
9.78909e-09
1.42876e-05
1.19486e-08
1.42869e-05
1.43408e-08
1.42859e-05
1.61256e-08
1.42853e-05
1.7433e-08
1.42852e-05
1.97734e-08
1.42854e-05
2.24917e-08
1.4286e-05
2.51075e-08
1.42872e-05
2.72011e-08
2.90447e-08
1.42903e-05
1.5445e-05
-1.13186e-08
1.54446e-05
-1.0616e-08
1.54423e-05
3.09186e-09
1.54385e-05
-4.14035e-09
1.54454e-05
2.45162e-09
1.54474e-05
2.50075e-08
1.5441e-05
2.42137e-08
1.54362e-05
1.72914e-08
1.54344e-05
1.6157e-08
1.54312e-05
1.51757e-08
1.54286e-05
1.23671e-08
1.54281e-05
1.24827e-08
1.54279e-05
1.44972e-08
1.54274e-05
1.66163e-08
1.54271e-05
1.77956e-08
1.54272e-05
1.96437e-08
1.54278e-05
2.18702e-08
1.54288e-05
2.41811e-08
1.543e-05
2.59735e-08
2.84501e-08
1.54306e-05
1.66791e-05
-7.96022e-09
1.66779e-05
-9.39142e-09
1.66771e-05
3.86698e-09
1.6672e-05
9.39107e-10
1.66741e-05
3.53518e-10
1.66796e-05
1.9516e-08
1.66759e-05
2.79238e-08
1.66696e-05
2.35981e-08
1.66665e-05
1.92772e-08
1.6664e-05
1.76027e-08
1.66615e-05
1.49635e-08
1.66602e-05
1.37065e-08
1.66601e-05
1.46724e-08
1.66601e-05
1.65704e-08
1.666e-05
1.78437e-08
1.66605e-05
1.92384e-08
1.66614e-05
2.09394e-08
1.66627e-05
2.28441e-08
1.66645e-05
2.42214e-08
2.51267e-08
1.66678e-05
1.80117e-05
-5.27144e-09
1.80094e-05
-7.09742e-09
1.80098e-05
3.45868e-09
1.80052e-05
5.5737e-09
1.80028e-05
2.73194e-09
1.80081e-05
1.42666e-08
1.80081e-05
2.79049e-08
1.80027e-05
2.89638e-08
1.79977e-05
2.42605e-08
1.79951e-05
2.0268e-08
1.79928e-05
1.72346e-08
1.79913e-05
1.52292e-08
1.79909e-05
1.50707e-08
1.79911e-05
1.6321e-08
1.79916e-05
1.74055e-08
1.79923e-05
1.85057e-08
1.79935e-05
1.97066e-08
1.79952e-05
2.11778e-08
1.79971e-05
2.23077e-08
2.38335e-08
1.79984e-05
1.94506e-05
-3.22721e-09
1.94473e-05
-3.74481e-09
1.94484e-05
2.33912e-09
1.94445e-05
9.50161e-09
1.94406e-05
6.62202e-09
1.94419e-05
1.29438e-08
1.9445e-05
2.485e-08
1.94418e-05
3.21499e-08
1.94367e-05
2.93744e-08
1.94327e-05
2.42432e-08
1.94304e-05
1.95168e-08
1.94289e-05
1.67221e-08
1.94284e-05
1.55983e-08
1.94286e-05
1.60827e-08
1.94294e-05
1.66493e-08
1.94305e-05
1.74184e-08
1.9432e-05
1.81959e-08
1.9434e-05
1.91801e-08
1.94363e-05
2.00024e-08
2.10903e-08
1.9439e-05
2.1004e-05
-1.40079e-09
2.10013e-05
-1.04084e-09
2.10004e-05
3.18896e-09
2.09988e-05
1.11193e-08
2.09941e-05
1.13701e-08
2.09924e-05
1.46074e-08
2.09943e-05
2.29279e-08
2.09948e-05
3.16696e-08
2.09906e-05
3.35681e-08
2.0986e-05
2.8808e-08
2.0983e-05
2.25555e-08
2.09815e-05
1.82686e-08
2.09808e-05
1.62204e-08
2.09811e-05
1.58221e-08
2.09819e-05
1.58129e-08
2.09834e-05
1.599e-08
2.09852e-05
1.63613e-08
2.09875e-05
1.68647e-08
2.09901e-05
1.73676e-08
1.81867e-08
2.0993e-05
2.26812e-05
3.41385e-10
2.26792e-05
9.6622e-10
2.26768e-05
5.52218e-09
2.26762e-05
1.18032e-08
2.26721e-05
1.54271e-08
2.26685e-05
1.81991e-08
2.26682e-05
2.31968e-08
2.26698e-05
3.01413e-08
2.2668e-05
3.53032e-08
2.26639e-05
3.29591e-08
2.26602e-05
2.62575e-08
2.26581e-05
2.03212e-08
2.26574e-05
1.69875e-08
2.26576e-05
1.55874e-08
2.26585e-05
1.49049e-08
2.26601e-05
1.44058e-08
2.26623e-05
1.41925e-08
2.26649e-05
1.4264e-08
2.26679e-05
1.43647e-08
1.43231e-08
2.26717e-05
2.44924e-05
1.91624e-09
2.44906e-05
2.72304e-09
2.4488e-05
8.17464e-09
2.44866e-05
1.31386e-08
2.44839e-05
1.81343e-08
2.44796e-05
2.24921e-08
2.44776e-05
2.5262e-08
2.44779e-05
2.97592e-08
2.44781e-05
3.51625e-08
2.44753e-05
3.57589e-08
2.44716e-05
2.99605e-08
2.4469e-05
2.29259e-08
2.44679e-05
1.8081e-08
2.44679e-05
1.55451e-08
2.44688e-05
1.40024e-08
2.44704e-05
1.28201e-08
2.44728e-05
1.18476e-08
2.44756e-05
1.13858e-08
2.44789e-05
1.11043e-08
1.12936e-08
2.44819e-05
2.6448e-05
3.45354e-09
2.64467e-05
4.00707e-09
2.64437e-05
1.12063e-08
2.64418e-05
1.5033e-08
2.64397e-05
2.02557e-08
2.6436e-05
2.61676e-08
2.64325e-05
2.87357e-08
2.64316e-05
3.07402e-08
2.64317e-05
3.4994e-08
2.64305e-05
3.69851e-08
2.64275e-05
3.30152e-08
2.64244e-05
2.59318e-08
2.6423e-05
1.95685e-08
2.64228e-05
1.57507e-08
2.64235e-05
1.32905e-08
2.64249e-05
1.14126e-08
2.64272e-05
9.5137e-09
2.64303e-05
8.2632e-09
2.64339e-05
7.54053e-09
7.09053e-09
2.64381e-05
2.85598e-05
5.00255e-09
2.8559e-05
4.79655e-09
2.85556e-05
1.46125e-08
2.85536e-05
1.69839e-08
2.85512e-05
2.26818e-08
2.85485e-05
2.88816e-08
2.85448e-05
3.24611e-08
2.85423e-05
3.31745e-08
2.85417e-05
3.56371e-08
2.85411e-05
3.7551e-08
2.85388e-05
3.52875e-08
2.85358e-05
2.90127e-08
2.85336e-05
2.1688e-08
2.85333e-05
1.61172e-08
2.85338e-05
1.28018e-08
2.85351e-05
1.0068e-08
2.85372e-05
7.44053e-09
2.85401e-05
5.30717e-09
2.85439e-05
3.76251e-09
2.84533e-09
2.85482e-05
3.08402e-05
6.45083e-09
3.08395e-05
5.55498e-09
3.08362e-05
1.78487e-08
3.08342e-05
1.90609e-08
3.08315e-05
2.53019e-08
3.08292e-05
3.11975e-08
3.08261e-05
3.55658e-08
3.08227e-05
3.65568e-08
3.0821e-05
3.73651e-08
3.08202e-05
3.83752e-08
3.08184e-05
3.7082e-08
3.08152e-05
3.22237e-08
3.08122e-05
2.46695e-08
3.0811e-05
1.73114e-08
3.08117e-05
1.21427e-08
3.08134e-05
8.32285e-09
3.08157e-05
5.10989e-09
3.08186e-05
2.39542e-09
3.08221e-05
3.27818e-10
-1.69779e-09
3.08266e-05
3.33027e-05
7.82554e-09
3.33022e-05
6.12968e-09
3.32989e-05
2.11507e-08
3.32971e-05
2.08339e-08
3.3294e-05
2.83762e-08
3.32922e-05
3.30469e-08
3.32895e-05
3.82275e-08
3.32862e-05
3.98606e-08
3.32833e-05
4.02719e-08
3.32817e-05
3.99125e-08
3.328e-05
3.87894e-08
3.32772e-05
3.50913e-08
3.32729e-05
2.8974e-08
3.3269e-05
2.11861e-08
3.32668e-05
1.43786e-08
3.32666e-05
8.47969e-09
3.32685e-05
3.17918e-09
3.32723e-05
-1.41653e-09
3.32771e-05
-4.40484e-09
-6.91929e-09
3.32823e-05
3.5962e-05
8.99575e-09
3.59612e-05
6.87619e-09
3.59582e-05
2.4157e-08
3.59566e-05
2.2411e-08
3.59533e-05
3.16875e-08
3.5952e-05
3.44071e-08
3.59494e-05
4.07617e-08
3.59473e-05
4.19482e-08
3.59437e-05
4.39347e-08
3.59401e-05
4.34526e-08
3.59371e-05
4.18372e-08
3.59344e-05
3.77601e-08
3.59316e-05
3.17757e-08
3.59291e-05
2.36616e-08
3.59269e-05
1.6598e-08
3.59255e-05
9.92351e-09
3.59242e-05
4.43934e-09
3.59243e-05
-1.47953e-09
3.59275e-05
-7.64807e-09
-1.12537e-08
3.59319e-05
3.88338e-05
9.65587e-09
3.88323e-05
8.35672e-09
3.88303e-05
2.61841e-08
3.88283e-05
2.43646e-08
3.88255e-05
3.45712e-08
3.88243e-05
3.55867e-08
3.88214e-05
4.36126e-08
3.88207e-05
4.26634e-08
3.88193e-05
4.53682e-08
3.88164e-05
4.62788e-08
3.88099e-05
4.8403e-08
3.88017e-05
4.59646e-08
3.87912e-05
4.22341e-08
3.87815e-05
3.33308e-08
3.87735e-05
2.46682e-08
3.87693e-05
1.40843e-08
3.87691e-05
4.68873e-09
3.87719e-05
-4.27539e-09
3.87785e-05
-1.42728e-08
-2.33493e-08
3.87906e-05
4.19347e-05
9.94023e-09
4.1933e-05
1.01373e-08
4.19313e-05
2.7834e-08
4.19295e-05
2.61606e-08
4.19269e-05
3.72089e-08
4.19269e-05
3.56032e-08
4.19228e-05
4.76759e-08
4.19211e-05
4.43673e-08
4.19187e-05
4.7806e-08
4.19221e-05
4.28393e-08
4.19233e-05
4.71633e-08
4.19249e-05
4.44356e-08
4.19202e-05
4.69394e-08
4.19115e-05
4.20358e-08
4.18962e-05
3.99339e-08
4.18777e-05
3.26229e-08
4.18549e-05
2.74226e-08
4.18292e-05
2.14452e-08
4.18091e-05
5.84934e-09
-1.39104e-08
4.17996e-05
4.52837e-05
9.40566e-09
4.52808e-05
1.30763e-08
4.5281e-05
2.7607e-08
4.52774e-05
2.97246e-08
4.52761e-05
3.85315e-08
4.52757e-05
3.60336e-08
4.52791e-05
4.42497e-08
4.52777e-05
4.57188e-08
4.52723e-05
5.32028e-08
4.52643e-05
5.08447e-08
4.52538e-05
5.77485e-08
4.52409e-05
5.72574e-08
4.52251e-05
6.27288e-08
4.52072e-05
5.99668e-08
4.51886e-05
5.85408e-08
4.51723e-05
4.89119e-08
4.51628e-05
3.68997e-08
4.51688e-05
1.54474e-08
4.51741e-05
5.49845e-10
-4.0143e-08
4.52004e-05
4.88993e-05
8.7593e-09
4.88968e-05
1.55023e-08
4.88974e-05
2.69966e-08
4.88955e-05
3.16564e-08
4.88919e-05
4.20914e-08
4.88851e-05
4.28624e-08
4.88831e-05
4.62932e-08
4.88867e-05
4.20537e-08
4.89e-05
3.99641e-08
4.89169e-05
3.38807e-08
4.89459e-05
2.87976e-08
4.89813e-05
2.18573e-08
4.90284e-05
1.55998e-08
4.90797e-05
8.68568e-09
4.91362e-05
2.06208e-09
4.91931e-05
-8.0274e-09
4.92402e-05
-1.02199e-08
4.92688e-05
-1.31434e-08
4.9284e-05
-1.46405e-08
-1.49399e-08
4.92588e-05
5.28035e-05
7.9819e-09
5.28013e-05
1.76806e-08
5.28014e-05
2.69416e-08
5.28018e-05
3.12529e-08
5.28054e-05
3.84691e-08
5.28087e-05
3.95949e-08
5.28045e-05
5.04634e-08
5.27933e-05
5.31992e-08
5.27755e-05
5.77687e-08
5.27527e-05
5.66736e-08
5.27263e-05
5.52569e-08
5.26991e-05
4.90313e-08
5.26729e-05
4.17631e-08
5.26513e-05
3.02934e-08
5.26359e-05
1.74988e-08
5.26262e-05
1.713e-09
5.26298e-05
-1.38611e-08
5.26477e-05
-3.10453e-08
5.26812e-05
-4.81078e-08
-6.74802e-08
5.27337e-05
5.70197e-05
6.81345e-09
5.70192e-05
1.81717e-08
5.70202e-05
2.59264e-08
5.70149e-05
3.66104e-08
5.70104e-05
4.29513e-08
5.70057e-05
4.42395e-08
5.70145e-05
4.17183e-08
5.70294e-05
3.83196e-08
5.70542e-05
3.28739e-08
5.7085e-05
2.59501e-08
5.71219e-05
1.83455e-08
5.71598e-05
1.11434e-08
5.71968e-05
4.69609e-09
5.72297e-05
-2.56668e-09
5.72591e-05
-1.18526e-08
5.72744e-05
-1.36006e-08
5.72756e-05
-1.50977e-08
5.72617e-05
-1.7106e-08
5.72318e-05
-1.82314e-08
-1.69246e-08
5.71812e-05
6.15704e-05
7.35644e-09
6.15731e-05
1.54293e-08
6.15758e-05
2.32768e-08
6.15843e-05
2.80908e-08
6.15898e-05
3.74783e-08
6.15858e-05
4.81999e-08
6.15697e-05
5.77999e-08
6.15438e-05
6.42569e-08
6.15079e-05
6.87475e-08
6.14662e-05
6.76465e-08
6.14218e-05
6.27389e-08
6.138e-05
5.30102e-08
6.13441e-05
4.05159e-08
6.13163e-05
2.52602e-08
6.12955e-05
8.9658e-09
6.12903e-05
-8.38852e-09
6.13008e-05
-2.56423e-08
6.13266e-05
-4.29115e-08
6.13681e-05
-5.96745e-08
-7.7672e-08
6.14288e-05
6.64874e-05
6.79955e-09
6.649e-05
1.28353e-08
6.6491e-05
2.22377e-08
6.6489e-05
3.00718e-08
6.64893e-05
3.71608e-08
6.64969e-05
4.06078e-08
6.65096e-05
4.51046e-08
6.65275e-05
4.63942e-08
6.65492e-05
4.69994e-08
6.65725e-05
4.44184e-08
6.65945e-05
4.07098e-08
6.66131e-05
3.44418e-08
6.66261e-05
2.75005e-08
6.66322e-05
1.91474e-08
6.66303e-05
1.07973e-08
6.66199e-05
2.06703e-09
6.66015e-05
-7.20081e-09
6.65735e-05
-1.49907e-08
6.65349e-05
-2.09998e-08
-2.76292e-08
6.64848e-05
7.17931e-05
8.84509e-09
7.18043e-05
1.68607e-09
7.18097e-05
1.67712e-08
7.18239e-05
1.59043e-08
7.18276e-05
3.34571e-08
7.18276e-05
4.06379e-08
7.1811e-05
6.1721e-08
7.1785e-05
7.23098e-08
7.1741e-05
9.10747e-08
7.16868e-05
9.85572e-08
7.16196e-05
1.07962e-07
7.15486e-05
1.05396e-07
7.14749e-05
1.01211e-07
7.14077e-05
8.63676e-08
7.13518e-05
6.66545e-08
7.13148e-05
3.91122e-08
7.1288e-05
1.9537e-08
7.12744e-05
-1.33703e-09
7.12903e-05
-3.6904e-08
-7.75968e-08
7.13403e-05
7.75247e-05
7.75354e-05
7.75381e-05
7.7553e-05
7.75668e-05
7.75905e-05
7.76115e-05
7.76349e-05
7.76493e-05
7.76572e-05
7.76507e-05
7.76327e-05
7.75988e-05
7.75521e-05
7.74793e-05
7.7396e-05
7.73157e-05
7.72509e-05
7.71955e-05
7.71449e-05
3.81702e-06
2.77562e-08
3.78223e-06
3.4788e-08
3.74548e-06
3.67565e-08
3.7024e-06
4.30805e-08
3.65351e-06
4.8883e-08
3.6024e-06
5.11121e-08
3.55229e-06
5.01124e-08
3.50462e-06
4.76704e-08
3.45892e-06
4.57012e-08
3.41375e-06
4.51633e-08
3.36792e-06
4.58303e-08
3.32112e-06
4.68055e-08
3.27348e-06
4.76324e-08
3.22513e-06
4.83515e-08
3.17613e-06
4.90033e-08
3.12651e-06
4.96175e-08
3.07629e-06
5.02241e-08
3.02545e-06
5.08398e-08
2.97399e-06
5.14558e-08
2.92195e-06
5.20446e-08
2.86937e-06
5.25733e-08
2.81636e-06
5.30123e-08
2.76295e-06
5.34077e-08
2.70919e-06
5.37608e-08
2.6551e-06
5.40904e-08
2.60074e-06
5.43595e-08
2.54616e-06
5.45853e-08
2.49137e-06
5.4789e-08
2.43637e-06
5.49945e-08
2.38118e-06
5.51949e-08
2.32573e-06
5.54463e-08
2.26996e-06
5.57692e-08
2.21376e-06
5.62006e-08
2.15701e-06
5.67545e-08
2.09964e-06
5.73664e-08
2.04159e-06
5.80525e-08
1.98289e-06
5.87032e-08
1.92358e-06
5.9312e-08
1.86395e-06
5.96246e-08
1.80436e-06
5.95889e-08
1.74509e-06
5.92727e-08
1.68649e-06
5.85974e-08
1.62868e-06
5.78104e-08
1.57167e-06
5.70086e-08
1.51522e-06
5.6451e-08
1.45903e-06
5.61919e-08
1.40295e-06
5.60809e-08
1.34705e-06
5.59036e-08
1.29205e-06
5.49944e-08
1.23903e-06
5.30213e-08
1.18925e-06
4.97789e-08
1.1439e-06
4.53553e-08
1.10356e-06
4.03306e-08
1.06826e-06
3.5303e-08
1.03728e-06
3.09851e-08
1.00941e-06
2.78647e-08
9.83933e-07
2.54787e-08
9.60918e-07
2.3015e-08
9.41113e-07
1.9805e-08
9.25457e-07
1.56567e-08
9.14392e-07
1.10652e-08
9.0754e-07
6.85154e-09
9.0375e-07
3.79048e-09
9.01527e-07
2.22214e-09
8.99558e-07
1.96913e-09
8.973e-07
2.2582e-09
8.94946e-07
2.35401e-09
8.92921e-07
2.02533e-09
8.9147e-07
1.45051e-09
8.90342e-07
1.12859e-09
8.88929e-07
1.41228e-09
8.86917e-07
2.0124e-09
8.84455e-07
2.46208e-09
8.81829e-07
2.62615e-09
8.79217e-07
2.61187e-09
8.76541e-07
2.67619e-09
8.73508e-07
3.03316e-09
8.70006e-07
3.50191e-09
8.66289e-07
3.71705e-09
8.6264e-07
3.64883e-09
8.59079e-07
3.56026e-09
8.55471e-07
3.608e-09
8.51724e-07
3.74742e-09
8.47866e-07
3.8581e-09
8.44093e-07
3.77268e-09
8.40653e-07
3.44056e-09
8.37536e-07
3.11715e-09
8.34525e-07
3.0109e-09
8.31616e-07
2.90891e-09
8.28996e-07
2.6195e-09
8.26642e-07
2.35401e-09
8.24371e-07
2.27165e-09
8.22182e-07
2.18832e-09
8.20163e-07
2.01896e-09
8.18252e-07
1.91149e-09
8.1636e-07
1.89179e-09
8.14533e-07
1.82692e-09
8.12808e-07
1.72546e-09
8.11166e-07
1.64183e-09
8.09647e-07
1.51887e-09
8.08336e-07
1.31056e-09
8.07204e-07
1.13235e-09
8.06174e-07
1.02981e-09
8.05227e-07
9.47577e-10
8.04379e-07
8.4748e-10
8.03588e-07
7.91396e-10
8.02859e-07
7.29162e-10
8.02245e-07
6.13396e-10
8.01786e-07
4.59415e-10
8.01404e-07
3.81689e-10
8.01061e-07
3.42847e-10
8.00765e-07
2.96384e-10
8.00567e-07
1.97838e-10
8.0044e-07
1.26759e-10
8.00371e-07
6.93587e-11
8.00333e-07
3.78585e-11
8.00349e-07
-1.61368e-11
8.00403e-07
-5.42053e-11
8.00503e-07
-9.99121e-11
8.00631e-07
-1.28113e-10
8.00791e-07
-1.59633e-10
8.00968e-07
-1.77072e-10
8.01158e-07
-1.89906e-10
8.0136e-07
-2.02321e-10
8.01568e-07
-2.08072e-10
8.01794e-07
-2.2537e-10
8.02016e-07
-2.22595e-10
8.02253e-07
-2.36265e-10
8.02467e-07
-2.14499e-10
8.02683e-07
-2.1561e-10
8.02857e-07
-1.74683e-10
8.03026e-07
-1.6853e-10
8.0315e-07
-1.23797e-10
8.0327e-07
-1.19974e-10
8.03355e-07
-8.48564e-11
8.03441e-07
-8.60715e-11
8.03506e-07
-6.53864e-11
8.03572e-07
-6.62611e-11
8.0363e-07
-5.80466e-11
8.03683e-07
-5.29738e-11
8.03737e-07
-5.36277e-11
8.03778e-07
-4.14212e-11
8.03826e-07
-4.76236e-11
8.03858e-07
-3.2027e-11
8.03898e-07
-3.96554e-11
8.03924e-07
-2.59623e-11
8.03953e-07
-2.97567e-11
8.03976e-07
-2.2088e-11
8.03994e-07
-1.85159e-11
8.04013e-07
-1.84775e-11
8.04021e-07
-8.53019e-12
8.04035e-07
-1.41053e-11
8.04038e-07
-2.72515e-12
8.04046e-07
-8.52434e-12
8.04048e-07
-2.01485e-12
8.04051e-07
-2.3105e-12
8.04055e-07
-4.47726e-12
8.04052e-07
2.86468e-12
8.04059e-07
-6.68403e-12
8.04054e-07
4.95614e-12
8.0406e-07
-6.17525e-12
8.04057e-07
3.75245e-12
8.0406e-07
-3.63502e-12
8.04058e-07
1.98831e-12
8.04061e-07
-2.63869e-12
8.04057e-07
3.82165e-12
8.04064e-07
-6.54789e-12
8.04052e-07
1.10968e-11
8.04067e-07
-1.45121e-11
8.04047e-07
2.01276e-11
8.04067e-07
-2.04896e-11
8.04043e-07
2.39382e-11
8.04062e-07
-1.83115e-11
8.04042e-07
1.92989e-11
8.04051e-07
-8.78025e-12
8.04039e-07
1.19134e-11
8.0404e-07
-1.17425e-12
8.04027e-07
1.30531e-11
8.04033e-07
-5.29816e-12
8.04003e-07
2.94652e-11
8.04025e-07
-2.19131e-11
8.03968e-07
5.67244e-11
8.04008e-07
-3.97845e-11
8.03928e-07
8.03277e-11
8.03967e-07
-3.90795e-11
8.03884e-07
8.32147e-11
8.03888e-07
-4.47732e-12
8.03819e-07
6.93507e-11
8.03771e-07
4.78444e-11
8.03682e-07
8.93338e-11
8.03604e-07
7.7384e-11
8.03403e-07
2.01196e-10
8.03281e-07
1.22422e-10
8.02882e-07
3.98498e-10
8.02491e-07
3.91476e-10
8.01763e-07
7.27772e-10
8.004e-07
1.36339e-09
7.98899e-07
1.50045e-09
7.94528e-07
4.37143e-09
1.12074e-08
4.15858e-06
2.65259e-08
4.17622e-06
1.71466e-08
4.18738e-06
2.5603e-08
4.18829e-06
4.21649e-08
4.18239e-06
5.47868e-08
4.17543e-06
5.80645e-08
4.16981e-06
5.57401e-08
4.16605e-06
5.14257e-08
4.16329e-06
4.84656e-08
4.16039e-06
4.80594e-08
4.15668e-06
4.95421e-08
4.15183e-06
5.16567e-08
4.14591e-06
5.35549e-08
4.13914e-06
5.51175e-08
4.13168e-06
5.64621e-08
4.1236e-06
5.76994e-08
4.11484e-06
5.89838e-08
4.10537e-06
6.03108e-08
4.0951e-06
6.17197e-08
4.08404e-06
6.31133e-08
4.07213e-06
6.44743e-08
4.05944e-06
6.57089e-08
4.04597e-06
6.68733e-08
4.03176e-06
6.79781e-08
4.01681e-06
6.9031e-08
4.00113e-06
7.0043e-08
3.98474e-06
7.09744e-08
3.9676e-06
7.19356e-08
3.9497e-06
7.28864e-08
3.93101e-06
7.38905e-08
3.91149e-06
7.49676e-08
3.89109e-06
7.61674e-08
3.86974e-06
7.75509e-08
3.84741e-06
7.90791e-08
3.82402e-06
8.07628e-08
3.79957e-06
8.24951e-08
3.77404e-06
8.42419e-08
3.74741e-06
8.59359e-08
3.71978e-06
8.72598e-08
3.69119e-06
8.81715e-08
3.66179e-06
8.86769e-08
3.63159e-06
8.8796e-08
3.60067e-06
8.87345e-08
3.56903e-06
8.86458e-08
3.53659e-06
8.88906e-08
3.50324e-06
8.95377e-08
3.46888e-06
9.04488e-08
3.43357e-06
9.12079e-08
3.39752e-06
9.10439e-08
3.36115e-06
8.93958e-08
3.32514e-06
8.57905e-08
3.28999e-06
8.05053e-08
3.25612e-06
7.41976e-08
3.22372e-06
6.77015e-08
3.19261e-06
6.20987e-08
3.16249e-06
5.79857e-08
3.13315e-06
5.48151e-08
3.10479e-06
5.1378e-08
3.07782e-06
4.67678e-08
3.05264e-06
4.0841e-08
3.02957e-06
3.4139e-08
3.00851e-06
2.79103e-08
2.98903e-06
2.32636e-08
2.97059e-06
2.06694e-08
2.95254e-06
2.00194e-08
2.93456e-06
2.02345e-08
2.91664e-06
2.02712e-08
2.89891e-06
1.97617e-08
2.88154e-06
1.8818e-08
2.86444e-06
1.82288e-08
2.84742e-06
1.84282e-08
2.83049e-06
1.89439e-08
2.81373e-06
1.92254e-08
2.79733e-06
1.90205e-08
2.78147e-06
1.8476e-08
2.76604e-06
1.81106e-08
2.75089e-06
1.81773e-08
2.73597e-06
1.84272e-08
2.7212e-06
1.84791e-08
2.70661e-06
1.82438e-08
2.6921e-06
1.80655e-08
2.6775e-06
1.82119e-08
2.66271e-06
1.85382e-08
2.64783e-06
1.87392e-08
2.63315e-06
1.84521e-08
2.619e-06
1.75937e-08
2.60542e-06
1.66969e-08
2.59229e-06
1.61326e-08
2.57965e-06
1.55518e-08
2.5675e-06
1.47698e-08
2.55574e-06
1.41183e-08
2.54435e-06
1.36579e-08
2.53345e-06
1.30891e-08
2.52305e-06
1.24222e-08
2.51309e-06
1.18671e-08
2.50358e-06
1.14036e-08
2.4945e-06
1.09055e-08
2.48581e-06
1.04193e-08
2.47752e-06
9.93255e-09
2.4697e-06
9.32985e-09
2.46241e-06
8.60981e-09
2.45558e-06
7.96156e-09
2.4492e-06
7.40822e-09
2.44326e-06
6.88181e-09
2.43774e-06
6.36897e-09
2.43258e-06
5.95019e-09
2.42781e-06
5.50484e-09
2.42345e-06
4.96753e-09
2.41952e-06
4.39175e-09
2.41594e-06
3.9577e-09
2.4127e-06
3.58596e-09
2.40979e-06
3.20522e-09
2.40723e-06
2.75721e-09
2.40499e-06
2.3732e-09
2.40303e-06
2.02405e-09
2.40134e-06
1.72873e-09
2.39992e-06
1.40683e-09
2.39875e-06
1.1194e-09
2.39782e-06
8.25552e-10
2.39712e-06
5.74484e-10
2.39662e-06
3.33823e-10
2.39631e-06
1.38206e-10
2.39616e-06
-4.00378e-11
2.39616e-06
-2.08738e-10
2.39633e-06
-3.72425e-10
2.39665e-06
-5.51107e-10
2.39713e-06
-6.94717e-10
2.39773e-06
-8.38794e-10
2.39841e-06
-8.95872e-10
2.39914e-06
-9.42442e-10
2.39985e-06
-8.83154e-10
2.40052e-06
-8.4217e-10
2.40112e-06
-7.19709e-10
2.40165e-06
-6.52643e-10
2.4021e-06
-5.38358e-10
2.40251e-06
-4.91923e-10
2.40286e-06
-4.20151e-10
2.40319e-06
-3.96841e-10
2.4035e-06
-3.62302e-10
2.40379e-06
-3.43764e-10
2.40406e-06
-3.29692e-10
2.40433e-06
-3.03455e-10
2.40458e-06
-2.97834e-10
2.40481e-06
-2.63984e-10
2.40503e-06
-2.57528e-10
2.40522e-06
-2.21566e-10
2.4054e-06
-2.05443e-10
2.40555e-06
-1.73833e-10
2.40568e-06
-1.45087e-10
2.40578e-06
-1.23974e-10
2.40586e-06
-8.80449e-11
2.40593e-06
-7.96964e-11
2.40597e-06
-4.57184e-11
2.40601e-06
-4.58786e-11
2.40603e-06
-2.18408e-11
2.40605e-06
-2.29863e-11
2.40605e-06
-1.19747e-11
2.40607e-06
-9.24862e-12
2.40607e-06
-8.56146e-12
2.40608e-06
-2.8742e-12
2.40608e-06
-6.29537e-12
2.40608e-06
-9.14889e-13
2.40608e-06
-4.57064e-12
2.40608e-06
8.74823e-13
2.40609e-06
-5.68956e-12
2.40608e-06
6.12021e-12
2.40609e-06
-1.09351e-11
2.40608e-06
1.53493e-11
2.40609e-06
-1.86911e-11
2.40608e-06
2.56137e-11
2.40609e-06
-2.45867e-11
2.40608e-06
3.21371e-11
2.40608e-06
-2.37835e-11
2.40607e-06
3.13424e-11
2.40608e-06
-1.42807e-11
2.40606e-06
2.52325e-11
2.40607e-06
-2.52728e-12
2.40605e-06
2.62995e-11
2.40605e-06
-3.78831e-12
2.40603e-06
5.05511e-11
2.40603e-06
-2.61082e-11
2.406e-06
9.51094e-11
2.406e-06
-4.82754e-11
2.40596e-06
1.28151e-10
2.40595e-06
-2.79047e-11
2.40591e-06
1.19367e-10
2.40585e-06
5.48104e-11
2.40583e-06
8.78224e-11
2.40571e-06
1.72434e-10
2.4057e-06
1.00365e-10
2.40547e-06
3.083e-10
2.40546e-06
2.08441e-10
2.40503e-06
5.47582e-10
2.40494e-06
4.93398e-10
2.40422e-06
1.10452e-09
2.40369e-06
1.26253e-09
2.40239e-06
2.66816e-09
2.40019e-06
3.69118e-09
2.39744e-06
7.12096e-09
2.08761e-08
4.49307e-06
1.03288e-08
4.50927e-06
9.42272e-10
4.51938e-06
1.54924e-08
4.51626e-06
4.52915e-08
4.51343e-06
5.76138e-08
4.51232e-06
5.91747e-08
4.51319e-06
5.48736e-08
4.51468e-06
4.99317e-08
4.51577e-06
4.73736e-08
4.51665e-06
4.71794e-08
4.51761e-06
4.85823e-08
4.51856e-06
5.07058e-08
4.51928e-06
5.28347e-08
4.51974e-06
5.46568e-08
4.52e-06
5.62035e-08
4.52014e-06
5.75633e-08
4.52015e-06
5.89722e-08
4.52004e-06
6.04251e-08
4.51975e-06
6.20079e-08
4.51926e-06
6.35975e-08
4.51856e-06
6.51759e-08
4.51764e-06
6.66353e-08
4.51651e-06
6.7994e-08