/*--------------------------------*- C++ -*----------------------------------*\
| =========                 |                                                 |
| \\      /  F ield         | OpenFOAM: The Open Source CFD Toolbox           |
|  \\    /   O peration     | Version:  v2012                                 |
|   \\  /    A nd           | Website:  www.openfoam.com                      |
|    \\/     M anipulation  |                                                 |
\*---------------------------------------------------------------------------*/
FoamFile
{
    version     2.0;
    format      ascii;
    class       volVectorField;
    location    "0.4";
    object      U;
}
// * * * * * * * * * * * * * * * * * * * * * * * * * * * * * * * * * * * * * //

dimensions      [0 1 -1 0 0 0 0];


internalField   nonuniform List<vector> 
8800
(
(0.964966 -0.00124371 0)
(1.03434 0.00104768 0)
(0.967864 -0.000745524 0)
(1.0308 0.000881709 0)
(0.972326 -0.000756531 0)
(1.02862 0.000485127 0)
(0.975698 -0.00072224 0)
(1.02556 0.000520199 0)
(0.978397 -0.000546064 0)
(1.02267 0.000641633 0)
(0.981859 -0.000222 0)
(1.02108 0.000514222 0)
(0.98528 -0.000275984 0)
(1.01955 0.000345372 0)
(0.988445 -0.000328791 0)
(1.01836 0.000257621 0)
(0.991475 -0.000262877 0)
(1.01772 0.000114195 0)
(0.994734 0.000262353 0)
(1.01867 0.00079247 0)
(0.986908 -0.00117469 0)
(1.01119 0.000860893 0)
(0.989637 -0.000551738 0)
(1.00852 0.000635943 0)
(0.993128 -0.000550528 0)
(1.00714 0.000224972 0)
(0.995304 -0.000371383 0)
(1.00537 0.000155657 0)
(0.996705 -0.000142437 0)
(1.00396 0.000236169 0)
(0.998621 2.44398e-05 0)
(1.00385 0.000237411 0)
(1.00043 -8.14174e-05 0)
(1.00385 9.48926e-05 0)
(1.002 -0.000114192 0)
(1.00421 9.55405e-06 0)
(1.00349 0.00016005 0)
(1.00514 0.000327617 0)
(1.00549 0.00101511 0)
(1.00775 0.000877761 0)
(0.997485 -0.0011146 0)
(1.00122 0.000764891 0)
(0.99772 -0.000462658 0)
(1.00061 0.000556104 0)
(0.998634 -0.000509349 0)
(1.00035 0.000170741 0)
(0.999066 -0.000422326 0)
(1.00006 0.000247788 0)
(0.999313 -0.000314396 0)
(1.00002 0.000507129 0)
(1.00009 -0.00035507 0)
(1.0008 0.000720297 0)
(1.00096 -0.000630114 0)
(1.00151 0.000645645 0)
(1.00189 -0.000603166 0)
(1.00244 0.000469379 0)
(1.00304 -0.000408121 0)
(1.00382 0.0016298 0)
(1.00467 0.00184983 0)
(1.00649 0.0049483 0)
(0.999734 -0.00110174 0)
(0.999374 0.000712548 0)
(0.999131 -0.000386206 0)
(0.999448 0.000499247 0)
(0.999223 -0.000421974 0)
(0.999291 0.000108517 0)
(0.999223 -0.000244223 0)
(0.999301 2.51105e-05 0)
(0.999366 2.06283e-06 0)
(0.99951 7.75329e-05 0)
(0.999969 0.000133049 0)
(1.00033 0.000120454 0)
(1.00069 -0.000141921 0)
(1.00108 0.000106862 0)
(1.00154 -9.70814e-05 0)
(1.00203 0.000103077 0)
(1.00285 -6.94323e-05 0)
(1.00382 0.000143121 0)
(1.00508 0.000236694 0)
(1.0061 0.00108855 0)
(0.999999 -0.000903045 0)
(0.99922 0.000437049 0)
(0.999284 -0.00013328 0)
(0.999384 0.000238489 0)
(0.999246 -0.000139849 0)
(0.999222 -0.000127438 0)
(0.999162 -2.99954e-05 0)
(0.999268 -0.000198206 0)
(0.999321 0.000226272 0)
(0.999504 -0.000287299 0)
(0.999923 0.000493274 0)
(1.0003 -0.00042703 0)
(1.00063 0.00039474 0)
(1.00105 -0.000396447 0)
(1.00149 0.000405376 0)
(1.00199 -0.000395295 0)
(1.00263 0.000391681 0)
(1.00344 -0.00115466 0)
(1.00443 -0.000565152 0)
(1.00659 -0.0016617 0)
(1.00003 -0.00102501 0)
(0.999235 0.000555537 0)
(0.999305 -0.000216134 0)
(0.999378 0.000401859 0)
(0.999252 -0.000304275 0)
(0.999207 8.18237e-05 0)
(0.999197 -0.00034866 0)
(0.999266 0.000227725 0)
(0.999347 -0.000350297 0)
(0.999518 0.000375818 0)
(0.999923 -0.000205725 0)
(1.00029 0.000258979 0)
(1.00065 -0.00020163 0)
(1.00105 0.000305929 0)
(1.00149 -0.000197957 0)
(1.00199 0.000243476 0)
(1.00264 -0.000190423 0)
(1.00361 0.000265498 0)
(1.00496 0.000425707 0)
(1.00752 0.00251179 0)
(1.00002 -0.000724829 0)
(0.999275 0.000153914 0)
(0.999315 0.000159312 0)
(0.99939 -3.19733e-06 0)
(0.999253 0.000129611 0)
(0.999233 -0.000311475 0)
(0.999201 9.67632e-05 0)
(0.999279 -0.000158952 0)
(0.999365 -7.05998e-06 0)
(0.999532 7.08927e-06 0)
(0.999936 7.69738e-05 0)
(1.00031 -8.08726e-05 0)
(1.00067 0.000136168 0)
(1.00107 -3.11289e-05 0)
(1.00151 0.000156858 0)
(1.00201 5.0894e-05 0)
(1.00267 0.000206357 0)
(1.0036 0.000212183 0)
(1.00505 0.000344783 0)
(1.00773 0.00109876 0)
(1.00003 -0.000850787 0)
(0.999323 0.000254445 0)
(0.999321 -6.33052e-06 0)
(0.99941 0.000263315 0)
(0.999253 -0.000142163 0)
(0.999237 0.000123111 0)
(0.999242 -0.000454516 0)
(0.999289 0.000394909 0)
(0.999398 -0.000480057 0)
(0.999562 0.000424211 0)
(0.999937 -0.000198908 0)
(1.00033 0.000182957 0)
(1.00069 -4.81919e-05 0)
(1.00109 0.000184688 0)
(1.00153 3.62336e-05 0)
(1.00204 0.000205453 0)
(1.00271 0.000158113 0)
(1.00369 0.000458817 0)
(1.00526 0.000747306 0)
(1.00814 0.00170688 0)
(1.00002 -0.000616805 0)
(0.999368 -3.29897e-05 0)
(0.999355 0.000248985 0)
(0.999412 4.83377e-05 0)
(0.99928 9.11128e-05 0)
(0.999235 -1.63911e-05 0)
(0.999273 -0.000195821 0)
(0.999303 9.02127e-05 0)
(0.999415 -0.000151347 0)
(0.9996 2.96936e-05 0)
(0.999942 3.36385e-05 0)
(1.00037 6.7321e-05 0)
(1.00071 4.08322e-05 0)
(1.00112 0.000155726 0)
(1.00156 0.000150664 0)
(1.00208 0.000259617 0)
(1.00278 0.000328205 0)
(1.0038 0.000637702 0)
(1.00548 0.00101085 0)
(1.0085 0.00179309 0)
(1.00002 -0.000647561 0)
(0.999435 -2.12394e-05 0)
(0.999369 0.000151368 0)
(0.999443 0.000181328 0)
(0.999288 4.49094e-05 0)
(0.99925 4.55181e-06 0)
(0.999301 -4.0445e-05 0)
(0.999338 -0.000196365 0)
(0.999439 0.000180782 0)
(0.999636 -0.000202428 0)
(0.99999 0.000174117 0)
(1.00038 0.000117889 0)
(1.00075 9.02841e-05 0)
(1.00116 0.000166656 0)
(1.0016 0.000240135 0)
(1.00213 0.000343811 0)
(1.00286 0.000459168 0)
(1.00394 0.000745539 0)
(1.00569 0.00116906 0)
(1.00881 0.00180508 0)
(1.00002 -0.000528309 0)
(0.999484 -0.000168 0)
(0.999424 0.00012208 0)
(0.999448 0.000311294 0)
(0.999311 -7.9332e-05 0)
(0.999275 0.000261851 0)
(0.999295 -0.000227829 0)
(0.999389 -4.23409e-06 0)
(0.999459 -8.4064e-06 0)
(0.999653 7.13435e-06 0)
(1.00005 -4.50824e-07 0)
(1.00041 0.000190257 0)
(1.00078 0.000124046 0)
(1.0012 0.00022314 0)
(1.00165 0.00025569 0)
(1.00219 0.000429949 0)
(1.00295 0.000528987 0)
(1.00409 0.000864583 0)
(1.00591 0.00124973 0)
(1.00911 0.00185861 0)
(1.00003 -0.000460204 0)
(0.99955 -0.000225852 0)
(0.999471 0.000142852 0)
(0.999472 0.000228206 0)
(0.999343 0.000114636 0)
(0.999281 7.61852e-05 0)
(0.999327 -2.89293e-05 0)
(0.999426 -3.27512e-05 0)
(0.999499 -0.000129604 0)
(0.999695 0.000166666 0)
(1.00008 2.8809e-06 0)
(1.00046 0.000148572 0)
(1.00081 0.000200298 0)
(1.00125 0.000261254 0)
(1.00172 0.000314582 0)
(1.00227 0.000487296 0)
(1.00307 0.000640677 0)
(1.00426 0.000944276 0)
(1.00614 0.00132549 0)
(1.0094 0.00185864 0)
(1.00002 -0.000446623 0)
(0.999604 -0.000177986 0)
(0.999532 -2.37887e-05 0)
(0.999505 0.000323231 0)
(0.999352 0.000137806 0)
(0.999318 5.17033e-05 0)
(0.99934 0.000136602 0)
(0.999431 -7.8408e-05 0)
(0.999559 -9.3933e-05 0)
(0.999737 0.000162205 0)
(1.00011 0.000103456 0)
(1.00051 0.000133644 0)
(1.00087 0.00023146 0)
(1.0013 0.000315799 0)
(1.00179 0.000372752 0)
(1.00236 0.000550731 0)
(1.00318 0.000728251 0)
(1.00442 0.00100984 0)
(1.00636 0.00137202 0)
(1.00967 0.00184106 0)
(1.00002 -0.00034173 0)
(0.999653 -0.000209373 0)
(0.999587 -3.3815e-05 0)
(0.999548 0.000203973 0)
(0.999363 0.000302945 0)
(0.999339 2.56992e-05 0)
(0.999363 0.000135197 0)
(0.999447 4.12711e-05 0)
(0.999606 -8.46925e-05 0)
(0.999794 9.61605e-05 0)
(1.00014 0.000190347 0)
(1.00055 0.000164495 0)
(1.00092 0.000243319 0)
(1.00135 0.000337364 0)
(1.00186 0.000421043 0)
(1.00245 0.000587905 0)
(1.0033 0.00079412 0)
(1.00459 0.00105283 0)
(1.00658 0.00139242 0)
(1.00993 0.00179283 0)
(1.00002 -0.000328597 0)
(0.999696 -0.000154415 0)
(0.999641 -0.00011206 0)
(0.999608 0.000131266 0)
(0.99938 0.000349119 0)
(0.99935 0.000129296 0)
(0.9994 6.89517e-05 0)
(0.999447 0.000173559 0)
(0.999632 -4.62149e-05 0)
(0.999859 5.27043e-05 0)
(1.00019 0.000202365 0)
(1.00059 0.000244222 0)
(1.00098 0.000276486 0)
(1.00142 0.000384798 0)
(1.00194 0.000470868 0)
(1.00256 0.000644054 0)
(1.00343 0.000841409 0)
(1.00475 0.00109148 0)
(1.00678 0.00138528 0)
(1.01017 0.00175147 0)
(1.00002 -0.000271575 0)
(0.999729 -0.000117569 0)
(0.999676 -0.000116676 0)
(0.999666 3.22389e-05 0)
(0.999411 0.000325033 0)
(0.999341 0.000286093 0)
(0.999424 1.8119e-05 0)
(0.999473 0.000219339 0)
(0.999634 9.37977e-05 0)
(0.999908 6.06847e-05 0)
(1.00024 0.000195055 0)
(1.00062 0.000285266 0)
(1.00102 0.000324284 0)
(1.00147 0.00041353 0)
(1.00201 0.000505495 0)
(1.00266 0.000664491 0)
(1.00356 0.000860759 0)
(1.0049 0.00109928 0)
(1.00698 0.00137013 0)
(1.0104 0.00169562 0)
(1.00002 -0.000212315 0)
(0.99976 -0.000141521 0)
(0.999707 -4.38775e-05 0)
(0.999722 -9.51116e-05 0)
(0.999465 0.000285695 0)
(0.999334 0.000361484 0)
(0.999434 0.000119877 0)
(0.999506 0.000184008 0)
(0.99964 0.000207041 0)
(0.999932 0.000127285 0)
(1.0003 0.000180386 0)
(1.00067 0.000289145 0)
(1.00107 0.000362526 0)
(1.00153 0.000451848 0)
(1.00208 0.000545806 0)
(1.00276 0.00069252 0)
(1.00369 0.000884015 0)
(1.00506 0.0011071 0)
(1.00716 0.00134439 0)
(1.01061 0.00162336 0)
(1.00002 -0.000185271 0)
(0.999795 -0.000112026 0)
(0.999722 -9.1597e-06 0)
(0.999764 -0.000118361 0)
(0.999534 0.000178467 0)
(0.999345 0.000417588 0)
(0.999427 0.000249446 0)
(0.999534 0.000197745 0)
(0.999659 0.0002581 0)
(0.999942 0.000228936 0)
(1.00033 0.000214725 0)
(1.00072 0.000295309 0)
(1.00112 0.000384154 0)
(1.00158 0.000479309 0)
(1.00215 0.00057035 0)
(1.00286 0.000708162 0)
(1.00381 0.00088115 0)
(1.0052 0.00108524 0)
(1.00733 0.00129331 0)
(1.01081 0.00153891 0)
(1.00002 -0.000124475 0)
(0.999825 -0.000126873 0)
(0.99974 3.08224e-05 0)
(0.999794 -7.92747e-05 0)
(0.999607 6.55049e-05 0)
(0.999381 0.000400733 0)
(0.999416 0.000376365 0)
(0.999543 0.000271573 0)
(0.999681 0.000284678 0)
(0.999952 0.000290647 0)
(1.00035 0.000267375 0)
(1.00077 0.000304747 0)
(1.00118 0.000389678 0)
(1.00164 0.000490158 0)
(1.00222 0.000586759 0)
(1.00295 0.000715877 0)
(1.00393 0.000873081 0)
(1.00534 0.00105825 0)
(1.00749 0.0012451 0)
(1.011 0.00145334 0)
(1.00001 -0.000100195 0)
(0.999857 -0.000109372 0)
(0.999762 4.3291e-05 0)
(0.999804 -1.47364e-05 0)
(0.999671 -4.56816e-06 0)
(0.999447 0.000330796 0)
(0.999424 0.000453497 0)
(0.99954 0.000389716 0)
(0.999695 0.000345521 0)
(0.999966 0.000342998 0)
(1.00037 0.000323975 0)
(1.0008 0.00034296 0)
(1.00123 0.000399712 0)
(1.0017 0.000495306 0)
(1.00229 0.000585791 0)
(1.00304 0.000703662 0)
(1.00404 0.000843155 0)
(1.00546 0.00100964 0)
(1.00763 0.00117217 0)
(1.01116 0.00134761 0)
(1.00001 -5.89978e-05 0)
(0.999883 -9.94113e-05 0)
(0.999788 4.7102e-05 0)
(0.999813 4.39627e-05 0)
(0.999719 1.69855e-05 0)
(0.999524 0.00023542 0)
(0.999459 0.000468579 0)
(0.999538 0.0005025 0)
(0.999693 0.00044352 0)
(0.99997 0.000401837 0)
(1.00038 0.000369817 0)
(1.00082 0.00037193 0)
(1.00127 0.00041105 0)
(1.00176 0.00048809 0)
(1.00236 0.000572801 0)
(1.00312 0.000676108 0)
(1.00414 0.000802445 0)
(1.00558 0.000947769 0)
(1.00777 0.00109185 0)
(1.01131 0.00123884 0)
(1.00001 -4.36201e-05 0)
(0.999907 -5.7254e-05 0)
(0.999818 3.05515e-05 0)
(0.999823 0.000105398 0)
(0.999746 6.91565e-05 0)
(0.999597 0.000189322 0)
(0.999529 0.000422027 0)
(0.999557 0.000569498 0)
(0.999684 0.000552878 0)
(0.99996 0.0004871 0)
(1.00038 0.000425442 0)
(1.00084 0.000404816 0)
(1.0013 0.000428505 0)
(1.0018 0.000486431 0)
(1.00242 0.00055282 0)
(1.0032 0.000638685 0)
(1.00424 0.000742021 0)
(1.00569 0.000866807 0)
(1.00789 0.000991098 0)
(1.01144 0.00111564 0)
(1.00001 -2.35437e-05 0)
(0.999919 -1.94565e-05 0)
(0.999845 2.23107e-05 0)
(0.999842 0.000139203 0)
(0.999763 0.000132348 0)
(0.99965 0.00021049 0)
(0.999602 0.000378065 0)
(0.999603 0.000569223 0)
(0.99968 0.000640998 0)
(0.999934 0.000589178 0)
(1.00036 0.000499118 0)
(1.00084 0.000445602 0)
(1.00133 0.000443752 0)
(1.00184 0.000481919 0)
(1.00246 0.000527634 0)
(1.00326 0.000588944 0)
(1.00432 0.00066758 0)
(1.00579 0.000768299 0)
(1.00799 0.000873989 0)
(1.01155 0.000976888 0)
(1.00001 -4.75836e-06 0)
(0.999928 -6.67838e-07 0)
(0.99987 5.21455e-05 0)
(0.999863 0.000143104 0)
(0.99978 0.000197631 0)
(0.999689 0.00025568 0)
(0.999667 0.000374539 0)
(0.99967 0.000544383 0)
(0.999704 0.000678877 0)
(0.999907 0.000687293 0)
(1.00032 0.000586598 0)
(1.00082 0.000496972 0)
(1.00133 0.000461939 0)
(1.00186 0.000477411 0)
(1.00249 0.000505373 0)
(1.00331 0.000537871 0)
(1.00439 0.000586167 0)
(1.00588 0.000656161 0)
(1.00808 0.000737278 0)
(1.01165 0.000818636 0)
(1.00001 1.21183e-05 0)
(0.999937 2.11154e-05 0)
(0.999888 8.53822e-05 0)
(0.999888 0.000154658 0)
(0.999804 0.000240762 0)
(0.999717 0.000322809 0)
(0.999718 0.000405748 0)
(0.999736 0.000528388 0)
(0.999751 0.000683529 0)
(0.999895 0.000746519 0)
(1.00026 0.00067692 0)
(1.00077 0.000559838 0)
(1.00132 0.000488745 0)
(1.00187 0.000472613 0)
(1.0025 0.000480599 0)
(1.00332 0.00048774 0)
(1.00442 0.000502404 0)
(1.00593 0.000535313 0)
(1.00815 0.000584332 0)
(1.01172 0.000640521 0)
(1.00001 2.55514e-05 0)
(0.999943 4.01526e-05 0)
(0.999904 0.000114251 0)
(0.999907 0.000185056 0)
(0.999833 0.000263818 0)
(0.999748 0.000381965 0)
(0.999749 0.000459341 0)
(0.999794 0.000539329 0)
(0.999809 0.000679774 0)
(0.999902 0.000776512 0)
(1.00021 0.000750715 0)
(1.0007 0.000635873 0)
(1.00127 0.00052543 0)
(1.00185 0.000470024 0)
(1.00249 0.000447459 0)
(1.00331 0.000434616 0)
(1.00442 0.000420591 0)
(1.00594 0.000418537 0)
(1.00818 0.000430392 0)
(1.01176 0.000453532 0)
(1.00001 4.2779e-05 0)
(0.999948 4.97e-05 0)
(0.999919 0.000152869 0)
(0.999925 0.000207844 0)
(0.999863 0.000301023 0)
(0.999783 0.00042415 0)
(0.999776 0.000521644 0)
(0.999833 0.000582627 0)
(0.999866 0.00068644 0)
(0.999925 0.000795125 0)
(1.00016 0.000805817 0)
(1.00061 0.000713271 0)
(1.00118 0.000582362 0)
(1.00179 0.000480081 0)
(1.00245 0.000414575 0)
(1.00328 0.000373088 0)
(1.00438 0.00033742 0)
(1.00592 0.000313133 0)
(1.00817 0.000304162 0)
(1.01176 0.000308451 0)
(1.00001 5.92321e-05 0)
(0.999954 5.36055e-05 0)
(0.999933 0.000194895 0)
(0.999938 0.000232198 0)
(0.999896 0.000338255 0)
(0.999821 0.00046454 0)
(0.999803 0.000575216 0)
(0.999861 0.000638089 0)
(0.999912 0.000719115 0)
(0.999956 0.000813309 0)
(1.00013 0.000849772 0)
(1.00052 0.000786068 0)
(1.00106 0.000655695 0)
(1.00168 0.000519478 0)
(1.00237 0.000397748 0)
(1.00321 0.000286878 0)
(1.00432 0.000170999 0)
(1.00587 6.30805e-05 0)
(1.00815 -2.84388e-05 0)
(1.01175 -9.28202e-05 0)
(1.00001 6.94893e-05 0)
(0.999961 6.74033e-05 0)
(0.999948 0.000231505 0)
(0.999947 0.000259724 0)
(0.999928 0.000376087 0)
(0.99986 0.000496765 0)
(0.999832 0.000620665 0)
(0.999884 0.000697128 0)
(0.999945 0.00076867 0)
(0.999983 0.000854198 0)
(1.00011 0.000888929 0)
(1.00043 0.000846279 0)
(1.00092 0.000725515 0)
(1.00151 0.000598483 0)
(1.00218 0.000494165 0)
(1.00298 0.000409513 0)
(1.00407 0.000318341 0)
(1.00561 0.000206559 0)
(1.0079 8.54467e-05 0)
(1.01155 -2.92256e-05 0)
(1.00001 8.60571e-05 0)
(0.999969 6.86809e-05 0)
(0.99996 0.000273786 0)
(0.999953 0.000279431 0)
(0.999958 0.000418822 0)
(0.999898 0.000520728 0)
(0.999869 0.000663667 0)
(0.999908 0.000747947 0)
(0.999976 0.000826862 0)
(1 0.000905376 0)
(1.00008 0.000979109 0)
(1.00034 0.000931936 0)
(1.00079 0.000776293 0)
(1.00141 0.000534095 0)
(1.00212 0.00028722 0)
(1.00296 4.3472e-05 0)
(1.00402 -0.000180476 0)
(1.0055 -0.000407888 0)
(1.00774 -0.000611233 0)
(1.01135 -0.000793165 0)
(1.00001 9.82011e-05 0)
(0.99998 7.7041e-05 0)
(0.999977 0.000306767 0)
(0.999956 0.000299425 0)
(0.999987 0.000467002 0)
(0.999934 0.000534234 0)
(0.999909 0.000712028 0)
(0.999935 0.000780931 0)
(1 0.000871538 0)
(1.00005 0.000930994 0)
(1.00008 0.0010838 0)
(1.00018 0.0011768 0)
(1.00046 0.00123081 0)
(1.00091 0.00116392 0)
(1.00152 0.00106952 0)
(1.0023 0.000892465 0)
(1.00335 0.000684053 0)
(1.00488 0.000369616 0)
(1.00719 -1.26483e-05 0)
(1.01093 -0.000493568 0)
(1 9.11977e-05 0)
(0.999991 0.000110962 0)
(0.999987 0.000313986 0)
(0.999963 0.000340571 0)
(1.00001 0.000499405 0)
(0.99997 0.000543381 0)
(0.999953 0.000752454 0)
(0.999952 0.000825476 0)
(1.00002 0.000957881 0)
(1.00012 0.000937641 0)
(1.00025 0.000951431 0)
(1.00043 0.00084339 0)
(1.00073 0.000722764 0)
(1.00118 0.000441272 0)
(1.00173 0.000163859 0)
(1.00238 -0.000192872 0)
(1.00317 -0.00049755 0)
(1.00429 -0.000837579 0)
(1.0061 -0.00111361 0)
(1.00934 -0.00138675 0)
(1 0.000113893 0)
(1 0.000104066 0)
(1 0.000348746 0)
(0.999975 0.000340782 0)
(1.00001 0.000571117 0)
(1.00002 0.000514771 0)
(1.00002 0.000774518 0)
(1.00002 0.000735454 0)
(1.00001 0.0010728 0)
(0.999961 0.001158 0)
(0.999884 0.00165531 0)
(0.999826 0.00192532 0)
(0.999859 0.00251503 0)
(1.00007 0.00278312 0)
(1.00051 0.00318256 0)
(1.00118 0.00317242 0)
(1.00219 0.00311442 0)
(1.00371 0.00247591 0)
(1.0061 0.00140741 0)
(1.01 -0.000809298 0)
(0.999996 6.91037e-05 0)
(1.00001 0.000189256 0)
(1.00001 0.000297592 0)
(1 0.000422687 0)
(1.00001 0.00054478 0)
(1.00002 0.000659103 0)
(1.00001 0.000774073 0)
(1.00012 0.000811669 0)
(1.00031 0.000749945 0)
(1.00065 0.000603826 0)
(1.00102 0.000422762 0)
(1.00143 0.000215407 0)
(1.0018 7.31538e-06 0)
(1.00212 -0.000189821 0)
(1.0023 -0.000379945 0)
(1.00225 -0.000547906 0)
(1.00182 -0.000678688 0)
(1.0008 -0.000788155 0)
(0.998785 -0.000889029 0)
(0.995072 -0.00101441 0)
(1.00001 0.000106694 0)
(1 0.000150599 0)
(1.00002 0.000353953 0)
(1.00001 0.000377276 0)
(1.00006 0.000581563 0)
(1.00007 0.000576514 0)
(1.00003 0.00080956 0)
(0.99987 0.000923799 0)
(0.999668 0.00117492 0)
(0.999441 0.00130301 0)
(0.999224 0.00145974 0)
(0.99905 0.00145665 0)
(0.999021 0.00139189 0)
(0.9992 0.0011404 0)
(0.99965 0.000786123 0)
(1.00044 0.000276977 0)
(1.00163 -0.000288894 0)
(1.00338 -0.000938747 0)
(1.00604 -0.00156114 0)
(1.01025 -0.00215336 0)
(0.999989 5.16237e-05 0)
(1.00003 0.000228134 0)
(1.00002 0.00028844 0)
(1.00003 0.000478807 0)
(1.00002 0.000578539 0)
(1.00009 0.000699727 0)
(1.0002 0.000720921 0)
(1.00039 0.000695075 0)
(1.00066 0.000615873 0)
(1.00097 0.000491392 0)
(1.00124 0.000350977 0)
(1.00141 0.000205959 0)
(1.00141 9.56772e-05 0)
(1.00123 -2.07558e-05 0)
(1.00083 -0.000121824 0)
(1.00017 -0.000258767 0)
(0.999129 -0.000414053 0)
(0.997531 -0.000614399 0)
(0.995022 -0.000855598 0)
(0.990918 -0.00118033 0)
(1.00001 8.0495e-05 0)
(0.999999 0.000175944 0)
(1.00006 0.000300784 0)
(1.00009 0.000407086 0)
(1.00011 0.000555994 0)
(1.00006 0.000725604 0)
(0.99988 0.000878407 0)
(0.999587 0.00102195 0)
(0.999226 0.00110142 0)
(0.99886 0.00109257 0)
(0.998545 0.000968485 0)
(0.998356 0.000753754 0)
(0.998332 0.000442602 0)
(0.998525 6.91301e-05 0)
(0.998963 -0.000360744 0)
(0.999715 -0.00082057 0)
(1.00088 -0.0012911 0)
(1.00261 -0.00173065 0)
(1.00524 -0.00211593 0)
(1.00943 -0.00239217 0)
(0.999987 7.16602e-05 0)
(1.00003 0.000153368 0)
(1.00004 0.000286594 0)
(1.0001 0.000374885 0)
(1.00016 0.000551226 0)
(1.00027 0.000631806 0)
(1.00041 0.000782427 0)
(1.00058 0.000885158 0)
(1.00073 0.00103438 0)
(1.00083 0.00111618 0)
(1.00082 0.0012026 0)
(1.00067 0.00119517 0)
(1.00033 0.00115356 0)
(0.999776 0.000998922 0)
(0.998996 0.000781741 0)
(0.997968 0.000442679 0)
(0.996613 3.09467e-05 0)
(0.994777 -0.000503486 0)
(0.99214 -0.00110951 0)
(0.988067 -0.00183062 0)
(1.00001 5.59685e-05 0)
(1.00001 0.00011559 0)
(1.0001 0.000206257 0)
(1.00019 0.000355649 0)
(1.00022 0.000534857 0)
(1.00017 0.00076051 0)
(1 0.000983578 0)
(0.99971 0.00117589 0)
(0.999304 0.00130647 0)
(0.998844 0.00135407 0)
(0.998375 0.00130171 0)
(0.997972 0.00113933 0)
(0.997674 0.000876369 0)
(0.997528 0.000520432 0)
(0.997565 7.93812e-05 0)
(0.997867 -0.000434359 0)
(0.998531 -0.00100756 0)
(0.999764 -0.00160814 0)
(1.00192 -0.00219134 0)
(1.00574 -0.00269381 0)
(0.999985 0.000124074 0)
(1.00004 -8.92145e-05 0)
(1.00014 0.000182255 0)
(1.0003 1.8516e-05 0)
(1.00047 0.000316029 0)
(1.00068 0.000311063 0)
(1.00085 0.000785373 0)
(1.00099 0.00103569 0)
(1.00101 0.00173926 0)
(1.00088 0.00222458 0)
(1.00054 0.00301501 0)
(0.99998 0.00349544 0)
(0.999161 0.00408227 0)
(0.998066 0.00424575 0)
(0.996677 0.00433777 0)
(0.994983 0.0039187 0)
(0.992957 0.00328126 0)
(0.990542 0.00204072 0)
(0.987524 0.000398569 0)
(0.983333 -0.00208888 0)
(1.00372 0.00199338 0)
(0.991284 0.00271576 0)
(0.976833 0.00312796 0)
(0.962362 0.00341178 0)
(0.948379 0.0035777 0)
(0.934918 0.00357814 0)
(0.921937 0.0034327 0)
(0.909385 0.0032289 0)
(0.897218 0.00305715 0)
(0.885357 0.00296042 0)
(0.87366 0.00292387 0)
(0.861972 0.00291361 0)
(0.850148 0.00290611 0)
(0.838113 0.00289376 0)
(0.825804 0.00287522 0)
(0.813241 0.00285684 0)
(0.800409 0.00284001 0)
(0.787367 0.00282714 0)
(0.774101 0.00281581 0)
(0.760679 0.00280536 0)
(0.747098 0.00279153 0)
(0.733433 0.00277161 0)
(0.719673 0.00274908 0)
(0.705835 0.00272193 0)
(0.691904 0.00269536 0)
(0.677892 0.00266208 0)
(0.663827 0.00262713 0)
(0.649702 0.00259028 0)
(0.635541 0.00255437 0)
(0.62132 0.00251664 0)
(0.60707 0.00248442 0)
(0.59274 0.00245554 0)
(0.57834 0.00243344 0)
(0.563794 0.00242387 0)
(0.549109 0.00241457 0)
(0.534234 0.00241182 0)
(0.519173 0.00240704 0)
(0.503928 0.00239985 0)
(0.488526 0.00236139 0)
(0.473118 0.00229881 0)
(0.457727 0.00222844 0)
(0.442513 0.0021339 0)
(0.427502 0.00203443 0)
(0.41273 0.00194517 0)
(0.398137 0.00190536 0)
(0.383596 0.00191124 0)
(0.369103 0.00194415 0)
(0.354564 0.00196939 0)
(0.340162 0.00185744 0)
(0.326179 0.00158277 0)
(0.312879 0.0012449 0)
(0.300613 0.000907505 0)
(0.28957 0.000632547 0)
(0.2798 0.00047388 0)
(0.27126 0.000423917 0)
(0.263678 0.000376912 0)
(0.256815 0.000244864 0)
(0.25063 6.6228e-05 0)
(0.245168 -0.000120644 0)
(0.240644 -0.000307655 0)
(0.237255 -0.000465814 0)
(0.234962 -0.000569932 0)
(0.233589 -0.00059866 0)
(0.232828 -0.0005578 0)
(0.23229 -0.000502201 0)
(0.231739 -0.000462048 0)
(0.231165 -0.000453002 0)
(0.230608 -0.000444238 0)
(0.230152 -0.000420733 0)
(0.229823 -0.00038026 0)
(0.229492 -0.000323026 0)
(0.229053 -0.000274342 0)
(0.228484 -0.000244189 0)
(0.227828 -0.000221128 0)
(0.227152 -0.000196732 0)
(0.226468 -0.000166242 0)
(0.225729 -0.000134869 0)
(0.224887 -0.000117392 0)
(0.223957 -0.00011476 0)
(0.223006 -0.000114735 0)
(0.222074 -0.000109468 0)
(0.221146 -9.93719e-05 0)
(0.220196 -8.86764e-05 0)
(0.219214 -8.0271e-05 0)
(0.21823 -7.46216e-05 0)
(0.217301 -7.10535e-05 0)
(0.216453 -6.73118e-05 0)
(0.21566 -6.256e-05 0)
(0.2149 -6.06144e-05 0)
(0.214189 -6.12444e-05 0)
(0.213545 -5.81011e-05 0)
(0.212947 -4.95745e-05 0)
(0.212375 -4.17676e-05 0)
(0.211833 -3.59623e-05 0)
(0.211324 -2.90532e-05 0)
(0.210834 -2.26814e-05 0)
(0.210356 -2.02833e-05 0)
(0.209896 -1.93503e-05 0)
(0.209462 -1.77947e-05 0)
(0.209055 -1.68049e-05 0)
(0.208692 -1.65878e-05 0)
(0.208375 -1.45522e-05 0)
(0.208097 -1.08511e-05 0)
(0.207842 -7.5585e-06 0)
(0.207612 -5.53609e-06 0)
(0.207398 -3.41012e-06 0)
(0.207205 -1.66153e-06 0)
(0.20703 -7.08747e-07 0)
(0.206895 -3.42911e-07 0)
(0.206783 9.42829e-07 0)
(0.206694 2.32406e-06 0)
(0.206608 3.38295e-06 0)
(0.20655 3.74956e-06 0)
(0.206502 4.61583e-06 0)
(0.206483 5.51796e-06 0)
(0.206463 6.53868e-06 0)
(0.206468 6.9142e-06 0)
(0.206469 7.20012e-06 0)
(0.206498 7.21033e-06 0)
(0.206519 7.41477e-06 0)
(0.206566 7.33843e-06 0)
(0.206599 7.4277e-06 0)
(0.206658 7.39199e-06 0)
(0.206697 7.56028e-06 0)
(0.206762 7.98139e-06 0)
(0.206807 8.10309e-06 0)
(0.206876 8.21533e-06 0)
(0.206925 7.38187e-06 0)
(0.206993 6.65752e-06 0)
(0.20704 4.94266e-06 0)
(0.207099 3.7417e-06 0)
(0.207135 1.79597e-06 0)
(0.207179 7.94633e-07 0)
(0.207205 -6.02814e-07 0)
(0.207236 -1.05121e-06 0)
(0.207254 -1.7102e-06 0)
(0.207277 -1.82322e-06 0)
(0.207291 -2.07386e-06 0)
(0.207309 -2.11436e-06 0)
(0.207321 -2.06473e-06 0)
(0.207337 -2.12499e-06 0)
(0.207347 -1.95088e-06 0)
(0.207362 -2.05262e-06 0)
(0.207368 -1.83073e-06 0)
(0.207382 -1.8648e-06 0)
(0.207385 -1.59056e-06 0)
(0.207398 -1.44119e-06 0)
(0.207398 -1.15419e-06 0)
(0.207411 -8.60183e-07 0)
(0.207408 -6.68227e-07 0)
(0.207419 -3.66178e-07 0)
(0.207415 -3.25327e-07 0)
(0.207423 -9.4175e-08 0)
(0.207419 -1.43616e-07 0)
(0.207426 -5.28482e-08 0)
(0.207421 -5.14116e-08 0)
(0.207428 -1.37585e-07 0)
(0.207421 -1.17548e-08 0)
(0.207429 -2.16411e-07 0)
(0.20742 1.65165e-08 0)
(0.207431 -2.12739e-07 0)
(0.207419 -2.24736e-09 0)
(0.207433 -1.41922e-07 0)
(0.207417 -3.92092e-08 0)
(0.207435 -9.03421e-08 0)
(0.207416 2.08889e-08 0)
(0.207437 -6.71007e-08 0)
(0.207414 9.42473e-08 0)
(0.207439 -1.3772e-07 0)
(0.20741 2.10028e-07 0)
(0.207443 -2.35228e-07 0)
(0.207406 2.90127e-07 0)
(0.207446 -2.48349e-07 0)
(0.2074 2.63651e-07 0)
(0.207449 -1.49654e-07 0)
(0.207394 1.60666e-07 0)
(0.207451 -3.01744e-08 0)
(0.207388 1.41367e-07 0)
(0.207452 -6.51781e-08 0)
(0.207379 2.8222e-07 0)
(0.207454 -2.15053e-07 0)
(0.207366 4.99786e-07 0)
(0.207456 -3.34654e-07 0)
(0.207348 6.90422e-07 0)
(0.207458 -3.41256e-07 0)
(0.207324 8.27455e-07 0)
(0.207456 -1.90694e-07 0)
(0.20729 8.71731e-07 0)
(0.207449 1.20391e-07 0)
(0.207239 1.15773e-06 0)
(0.207433 2.88913e-07 0)
(0.207151 2.50521e-06 0)
(0.207397 -4.44882e-08 0)
(0.206985 5.56483e-06 0)
(0.207306 1.13546e-06 0)
(0.206632 1.0072e-05 0)
(0.207068 1.14272e-05 0)
(0.20566 1.19793e-05 0)
(0.206668 5.62756e-05 0)
(0.202383 0.000108018 0)
(1.00958 0.00170019 0)
(1.00852 0.00271863 0)
(1.00542 0.00389152 0)
(1.00233 0.00507814 0)
(0.999655 0.00587423 0)
(0.997453 0.00613427 0)
(0.99572 0.00593292 0)
(0.994422 0.00552127 0)
(0.993482 0.00516538 0)
(0.992787 0.00498914 0)
(0.992168 0.00496535 0)
(0.991494 0.00501167 0)
(0.990632 0.00506759 0)
(0.989537 0.00510897 0)
(0.988148 0.00513538 0)
(0.98649 0.00515538 0)
(0.984546 0.00517815 0)
(0.982358 0.00520617 0)
(0.979926 0.00523978 0)
(0.977278 0.00527435 0)
(0.974438 0.00530561 0)
(0.971422 0.00532736 0)
(0.968257 0.00534334 0)
(0.964913 0.00535419 0)
(0.96141 0.00536249 0)
(0.957722 0.00536613 0)
(0.953879 0.00536521 0)
(0.949865 0.00536386 0)
(0.945676 0.00536147 0)
(0.94132 0.00536016 0)
(0.936768 0.0053602 0)
(0.932039 0.00536695 0)
(0.927082 0.00538111 0)
(0.921901 0.00540392 0)
(0.916468 0.00543256 0)
(0.910758 0.00546613 0)
(0.904795 0.00550133 0)
(0.898525 0.00553565 0)
(0.892013 0.00555566 0)
(0.885262 0.00554819 0)
(0.8783 0.00552115 0)
(0.871184 0.00546366 0)
(0.863881 0.0053854 0)
(0.856454 0.00530049 0)
(0.848817 0.00522811 0)
(0.840945 0.00518977 0)
(0.832833 0.00515437 0)
(0.824419 0.00511204 0)
(0.815843 0.00506024 0)
(0.807162 0.00492659 0)
(0.798526 0.00469871 0)
(0.790068 0.0043924 0)
(0.781825 0.00401617 0)
(0.773883 0.00362315 0)
(0.766249 0.00326133 0)
(0.75891 0.00296527 0)
(0.751834 0.00273434 0)
(0.745037 0.00252148 0)
(0.738553 0.00228006 0)
(0.732399 0.00197547 0)
(0.726672 0.00162777 0)
(0.721373 0.00129589 0)
(0.716442 0.00102465 0)
(0.71186 0.000854164 0)
(0.707466 0.000779857 0)
(0.703151 0.000767189 0)
(0.69891 0.000756684 0)
(0.694667 0.000704173 0)
(0.690459 0.00061971 0)
(0.686322 0.000547359 0)
(0.682207 0.000520113 0)
(0.678154 0.000529403 0)
(0.674154 0.000537386 0)
(0.670192 0.000523794 0)
(0.666344 0.00049449 0)
(0.662601 0.000469114 0)
(0.65893 0.000468829 0)
(0.655355 0.000488319 0)
(0.651839 0.000498663 0)
(0.64834 0.000489067 0)
(0.644865 0.000475106 0)
(0.641387 0.000468741 0)
(0.637873 0.000467912 0)
(0.634323 0.000463414 0)
(0.630788 0.000441514 0)
(0.627343 0.000401696 0)
(0.624023 0.000365941 0)
(0.620821 0.000347138 0)
(0.617755 0.000329805 0)
(0.614811 0.000302834 0)
(0.611944 0.000276482 0)
(0.609161 0.000257535 0)
(0.606507 0.000237646 0)
(0.603968 0.000214956 0)
(0.601527 0.000196499 0)
(0.5992 0.000183857 0)
(0.596992 0.000171474 0)
(0.594867 0.000158738 0)
(0.592835 0.000146843 0)
(0.590912 0.000133222 0)
(0.589116 0.000115903 0)
(0.58742 0.000100148 0)
(0.585843 8.7859e-05 0)
(0.584371 7.73248e-05 0)
(0.583013 6.72859e-05 0)
(0.581727 6.01329e-05 0)
(0.58055 5.24822e-05 0)
(0.579454 4.22302e-05 0)
(0.578476 3.0771e-05 0)
(0.577563 2.40148e-05 0)
(0.576764 1.96633e-05 0)
(0.576016 1.5064e-05 0)
(0.575384 7.98477e-06 0)
(0.574789 2.41166e-06 0)
(0.574311 -2.21521e-06 0)
(0.573851 -5.23925e-06 0)
(0.573508 -9.1876e-06 0)
(0.573169 -1.24885e-05 0)
(0.572951 -1.58503e-05 0)
(0.572724 -1.80111e-05 0)
(0.572618 -2.00556e-05 0)
(0.572485 -2.11484e-05 0)
(0.572468 -2.18951e-05 0)
(0.572413 -2.26279e-05 0)
(0.572472 -2.33428e-05 0)
(0.572493 -2.44871e-05 0)
(0.572627 -2.44059e-05 0)
(0.572721 -2.42447e-05 0)
(0.572911 -2.19118e-05 0)
(0.573051 -1.99379e-05 0)
(0.573252 -1.58332e-05 0)
(0.573395 -1.30723e-05 0)
(0.573568 -8.95466e-06 0)
(0.573686 -6.94324e-06 0)
(0.573817 -4.07966e-06 0)
(0.573908 -3.14732e-06 0)
(0.574006 -1.63927e-06 0)
(0.574081 -1.32309e-06 0)
(0.574162 -7.22401e-07 0)
(0.574228 -4.79376e-07 0)
(0.574301 -3.96735e-07 0)
(0.574358 6.93694e-08 0)
(0.574429 -1.02023e-07 0)
(0.574474 4.82744e-07 0)
(0.574543 1.73368e-07 0)
(0.574574 5.853e-07 0)
(0.57464 2.57598e-07 0)
(0.574656 3.27783e-07 0)
(0.574713 1.68075e-07 0)
(0.574717 -4.45219e-08 0)
(0.574762 6.19651e-08 0)
(0.574757 -2.51243e-07 0)
(0.574791 1.15658e-09 0)
(0.57478 -2.69035e-07 0)
(0.574807 -4.20785e-08 0)
(0.574791 -7.93345e-08 0)
(0.574817 -7.54563e-08 0)
(0.574792 1.31245e-07 0)
(0.574826 -6.05748e-08 0)
(0.574789 2.26669e-07 0)
(0.574835 -2.7478e-08 0)
(0.574784 2.00437e-07 0)
(0.574842 1.10554e-08 0)
(0.57478 1.55472e-07 0)
(0.574847 -2.32542e-09 0)
(0.574777 1.57937e-07 0)
(0.574851 -1.90597e-07 0)
(0.574772 3.54603e-07 0)
(0.574858 -4.33874e-07 0)
(0.574761 5.86513e-07 0)
(0.574872 -5.65011e-07 0)
(0.574745 6.5357e-07 0)
(0.574887 -4.70636e-07 0)
(0.574728 5.23662e-07 0)
(0.574899 -2.21235e-07 0)
(0.574716 3.42949e-07 0)
(0.574906 -2.07729e-08 0)
(0.574704 3.76225e-07 0)
(0.574913 -1.11226e-07 0)
(0.574686 7.93198e-07 0)
(0.574927 -5.44442e-07 0)
(0.574656 1.54779e-06 0)
(0.574948 -1.06722e-06 0)
(0.574612 2.23502e-06 0)
(0.574979 -1.04652e-06 0)
(0.574549 2.26842e-06 0)
(0.575018 3.51842e-08 0)
(0.574469 1.71933e-06 0)
(0.575056 1.59989e-06 0)
(0.574363 2.05821e-06 0)
(0.575101 2.62469e-06 0)
(0.574181 4.3869e-06 0)
(0.575193 4.73109e-06 0)