/*--------------------------------*- C++ -*----------------------------------*\
| =========                 |                                                 |
| \\      /  F ield         | OpenFOAM: The Open Source CFD Toolbox           |
|  \\    /   O peration     | Version:  v2012                                 |
|   \\  /    A nd           | Website:  www.openfoam.com                      |
|    \\/     M anipulation  |                                                 |
\*---------------------------------------------------------------------------*/
FoamFile
{
    version     2.0;
    format      ascii;
    class       volScalarField;
    location    "0.7";
    object      p;
}
// * * * * * * * * * * * * * * * * * * * * * * * * * * * * * * * * * * * * * //

dimensions      [0 2 -2 0 0 0 0];


internalField   nonuniform List<scalar> 
8800
(
5.50673e-10
0.000687568
0.000719391
0.00071994
0.000536145
0.000434922
0.000218518
5.18749e-05
-0.00017135
-0.000398574
-0.00064318
-0.000897209
-0.00120068
-0.00152581
-0.00192041
-0.00234263
-0.00287039
-0.00349933
-0.00441331
-0.00614902
3.71678e-06
0.00068509
0.000720336
0.000718287
0.000538684
0.000432994
0.00022065
5.12312e-05
-0.000168844
-0.000399598
-0.000643598
-0.00090388
-0.00119867
-0.0015346
-0.00190976
-0.00235573
-0.00286528
-0.00357641
-0.00453254
-0.00655854
1.02252e-05
0.000679516
0.000722486
0.00071452
0.000544466
0.000428291
0.000223832
5.04877e-05
-0.000171358
-0.000398087
-0.000645388
-0.000905902
-0.00120102
-0.00153209
-0.00190962
-0.00237526
-0.0029396
-0.00364349
-0.004498
-0.00630543
1.68358e-05
0.000674135
0.00072281
0.000713761
0.000547839
0.000429116
0.000221244
6.00095e-05
-0.000187876
-0.000384382
-0.000663872
-0.000905351
-0.00120874
-0.00152433
-0.00190542
-0.00236645
-0.0030969
-0.00401618
-0.00527728
-0.00636019
2.8042e-05
0.00066185
0.000727708
0.000706299
0.000561155
0.000415517
0.000236248
4.89857e-05
-0.000174646
-0.00039608
-0.000647574
-0.000923863
-0.00121262
-0.00153768
-0.00190745
-0.00237669
-0.00294018
-0.00365604
-0.00465295
-0.006799
3.96512e-05
0.000650037
0.0007283
0.000705082
0.000566761
0.000415387
0.000240478
4.49697e-05
-0.000175536
-0.00040018
-0.000656446
-0.000931851
-0.00121626
-0.00154322
-0.0018949
-0.00235767
-0.00292609
-0.00382884
-0.00516397
-0.00773855
5.50459e-05
0.000632966
0.000731565
0.000701056
0.000575041
0.000417907
0.000239252
4.91545e-05
-0.000175884
-0.000405619
-0.000666698
-0.000939096
-0.00122788
-0.00153892
-0.00190579
-0.00234953
-0.00294915
-0.00380567
-0.00523349
-0.00792139
7.52139e-05
0.00060771
0.000736555
0.00069629
0.000579321
0.000424416
0.00024254
4.95726e-05
-0.000170084
-0.000418017
-0.000681575
-0.000953439
-0.00122985
-0.00154851
-0.00190699
-0.00235587
-0.00295811
-0.00387188
-0.00541976
-0.00830154
9.65694e-05
0.000593951
0.000721677
0.000706452
0.000572609
0.000433758
0.000249062
3.43956e-05
-0.000156426
-0.000422576
-0.000701507
-0.000960264
-0.00123904
-0.00155377
-0.00191747
-0.00236921
-0.00299838
-0.00396704
-0.0056168
-0.00864275
0.000125579
0.000563977
0.000720236
0.000693819
0.000583272
0.000445432
0.000256514
4.40288e-05
-0.000179067
-0.000435742
-0.000708931
-0.000974633
-0.00125217
-0.00156404
-0.0019309
-0.00239392
-0.00305298
-0.00407705
-0.00581234
-0.00893777
0.000154281
0.00054723
0.000701643
0.000685646
0.000601116
0.000441694
0.000258626
6.65317e-05
-0.000201831
-0.00045211
-0.000712245
-0.000985884
-0.0012675
-0.00157877
-0.00195017
-0.00242972
-0.00311998
-0.00419742
-0.00600365
-0.00920602
0.000189804
0.000529191
0.000671333
0.000684137
0.000601455
0.000446715
0.000283779
6.40931e-05
-0.000211543
-0.000471288
-0.000729022
-0.000998754
-0.0012821
-0.00159652
-0.00197638
-0.00247476
-0.00319692
-0.00432305
-0.00619022
-0.0094558
0.000228959
0.000512353
0.000642336
0.000669303
0.000599177
0.000476042
0.000291089
5.09388e-05
-0.000211105
-0.000483547
-0.000752502
-0.00101741
-0.00129837
-0.00161765
-0.00200902
-0.00252777
-0.00328116
-0.00445108
-0.0063712
-0.00969131
0.000268479
0.000500485
0.000616306
0.000639428
0.000595688
0.000495094
0.000295729
5.19986e-05
-0.000207264
-0.00049079
-0.000773272
-0.00104211
-0.00132064
-0.00164423
-0.00204845
-0.00258869
-0.00337159
-0.00458046
-0.00654462
-0.0099075
0.00030605
0.000498148
0.000589937
0.000612035
0.00057838
0.000500247
0.000322421
5.71605e-05
-0.000224329
-0.000502805
-0.000786476
-0.00106399
-0.00134757
-0.00167698
-0.00209397
-0.0026555
-0.00346634
-0.00470982
-0.00671117
-0.0101108
0.000341868
0.000500264
0.000569534
0.000580423
0.00055163
0.000488628
0.000343242
7.77202e-05
-0.00023177
-0.000521233
-0.000802104
-0.00108287
-0.00137538
-0.00171375
-0.00214444
-0.00272656
-0.0035637
-0.00483774
-0.00687193
-0.0103037
0.00037769
0.000503078
0.000553055
0.000555199
0.000523878
0.000458636
0.000340833
0.000109915
-0.000218749
-0.000538029
-0.000826667
-0.0011069
-0.0014048
-0.00175332
-0.00219811
-0.00280026
-0.00366177
-0.00496288
-0.00702523
-0.0104838
0.000413237
0.000506672
0.00053943
0.000535952
0.000495856
0.000421973
0.000309525
0.000120621
-0.000186595
-0.000533092
-0.000846968
-0.00113693
-0.00143918
-0.00179648
-0.00225449
-0.00287518
-0.00375905
-0.00508366
-0.00716996
-0.0106518
0.000444609
0.000512684
0.000529468
0.000516233
0.000469972
0.000392295
0.000269675
9.66803e-05
-0.000168161
-0.000504982
-0.000847397
-0.0011621
-0.00147806
-0.00184378
-0.00231373
-0.00295075
-0.00385419
-0.0051988
-0.00730465
-0.0108054
0.0004703
0.000521728
0.000523436
0.000495972
0.000444442
0.000365553
0.000233208
5.55945e-05
-0.000178839
-0.000483274
-0.000827345
-0.00117108
-0.00151147
-0.00189345
-0.00237517
-0.00302598
-0.00394573
-0.00530693
-0.00742885
-0.0109455
0.000492891
0.000529364
0.000518169
0.000477984
0.000417654
0.000334611
0.00020199
2.01202e-05
-0.00020646
-0.000481809
-0.000809766
-0.00116336
-0.00153085
-0.0019356
-0.00243417
-0.00309861
-0.0040319
-0.00540649
-0.00754088
-0.0110699
0.0005118
0.000534522
0.000512711
0.000463236
0.000389777
0.000300051
0.000170396
-7.98302e-06
-0.000233561
-0.000498052
-0.000805327
-0.00115411
-0.00153554
-0.00196425
-0.00248306
-0.00316353
-0.00410966
-0.00549566
-0.00763982
-0.0111783
0.000524594
0.000536706
0.000507644
0.000450286
0.000363834
0.000264356
0.000136777
-3.47421e-05
-0.000256868
-0.000516437
-0.000812926
-0.00115031
-0.00153471
-0.00197853
-0.00251752
-0.00321509
-0.00417472
-0.00557114
-0.0077237
-0.0112702
0.000531724
0.000535675
0.000499731
0.000435159
0.000340671
0.000232142
0.000102239
-6.29761e-05
-0.000277529
-0.000531875
-0.000821704
-0.00115095
-0.00153153
-0.00198226
-0.00253539
-0.00324901
-0.0042219
-0.0056284
-0.0077888
-0.0113419
0.000533182
0.000530799
0.000486749
0.000416958
0.000318777
0.000204788
7.03913e-05
-9.17256e-05
-0.000298024
-0.00054421
-0.000826829
-0.00114883
-0.00152405
-0.00197507
-0.00253562
-0.00326089
-0.00424605
-0.00566279
-0.00783113
-0.0113903
0.000526484
0.00051991
0.000471248
0.000396357
0.000295973
0.00018004
4.22426e-05
-0.000118792
-0.00031713
-0.000553005
-0.000826421
-0.00114026
-0.00150798
-0.00195346
-0.00251309
-0.00324357
-0.004239
-0.00566747
-0.00784621
-0.0114151
0.000510824
0.000502099
0.000451852
0.00037372
0.00027187
0.000155083
1.60159e-05
-0.000143206
-0.000332842
-0.000555774
-0.000817573
-0.00112263
-0.00148184
-0.00191647
-0.00246161
-0.00317612
-0.00415825
-0.00558047
-0.00776251
-0.0113414
0.000485723
0.00047611
0.000425912
0.000348398
0.000247008
0.000129569
-1.04083e-05
-0.000166315
-0.000344571
-0.00054969
-0.000793133
-0.00108532
-0.00144268
-0.00188605
-0.00244583
-0.00317368
-0.00416118
-0.00557691
-0.00774524
-0.0113143
0.000449199
0.000440317
0.000391799
0.000319375
0.000221924
0.000104159
-3.60527e-05
-0.000188917
-0.000358893
-0.000545964
-0.000756782
-0.00100198
-0.00130062
-0.00168091
-0.00218454
-0.00287548
-0.00385428
-0.00528728
-0.00748303
-0.0110764
0.000400452
0.000393671
0.000347221
0.00028023
0.000188588
7.80784e-05
-5.1982e-05
-0.000193173
-0.000356451
-0.000548967
-0.000778988
-0.00105088
-0.00137433
-0.00176741
-0.00226287
-0.00291684
-0.00382757
-0.0051842
-0.0073187
-0.0108706
0.000339534
0.000340775
0.000300855
0.000228392
0.000125392
1.41635e-05
-9.50913e-05
-0.000195523
-0.000299244
-0.000412136
-0.000544353
-0.000705606
-0.000915394
-0.00120535
-0.00162496
-0.00224585
-0.00317645
-0.00458382
-0.0067967
-0.0104809
0.000246985
0.000267794
0.000259466
0.000202976
0.000104858
-1.43704e-05
-0.000157656
-0.00031731
-0.000498009
-0.000689975
-0.000889192
-0.00109066
-0.001303
-0.00154213
-0.00184078
-0.00225192
-0.00287613
-0.00390134
-0.00564916
-0.00885028
0.000182428
0.000156312
0.000103184
4.25944e-05
-3.63863e-06
-1.23179e-05
-2.61282e-05
-4.92653e-05
-8.25264e-05
-0.000119927
-0.000164136
-0.000224416
-0.000324788
-0.000501341
-0.000807415
-0.00132145
-0.00216862
-0.00356068
-0.00587366
-0.00982165
0.000109395
9.56568e-05
7.36682e-05
3.36178e-05
-6.23917e-05
-0.000244407
-0.00049766
-0.00079458
-0.00109375
-0.00133631
-0.00146502
-0.00146103
-0.00140882
-0.00139888
-0.00144858
-0.00146936
-0.00125194
-0.000471134
0.00132615
0.00488331
-0.000115436
-0.000158911
-0.000169403
-0.000122169
-7.11016e-06
0.000142293
0.000276287
0.000367619
0.000415669
0.000441951
0.000457917
0.000456337
0.000408105
0.000265206
-3.06402e-05
-0.000566776
-0.00148646
-0.00301676
-0.00550636
-0.00951199
-0.000134303
-0.000118662
-0.000157783
-0.00025441
-0.00043005
-0.00064964
-0.000873819
-0.00103226
-0.0010767
-0.00101745
-0.000903394
-0.000767149
-0.000609512
-0.000398816
-7.81292e-05
0.000451985
0.00135787
0.00287734
0.00538392
0.00954959
-0.00051426
-0.000527134
-0.000428903
-0.000247646
-9.18225e-07
0.000287564
0.000556363
0.00075133
0.000862227
0.000938935
0.00102115
0.00111096
0.00117157
0.0011374
0.000927685
0.000433508
-0.000499608
-0.00208286
-0.00466019
-0.00888116
-0.000467338
-0.000473439
-0.00054827
-0.000670821
-0.000806302
-0.000899759
-0.000921961
-0.00085864
-0.000715982
-0.000496444
-0.000204782
0.000160009
0.000606652
0.00115703
0.00185313
0.00276303
0.00399659
0.00574178
0.0083382
0.0124484
-0.00086396
-0.000850794
-0.00072953
-0.000536127
-0.000299141
-8.26467e-06
0.000323493
0.000671682
0.000981226
0.00122365
0.00144958
0.00172394
0.00205552
0.00238234
0.00258642
0.00253401
0.00207231
0.000983723
-0.00111538
-0.00494455
-0.000841212
-0.000889698
-0.000995526
-0.00112838
-0.00125258
-0.00131637
-0.00128595
-0.00112449
-0.000819507
-0.000355032
0.000274125
0.00107741
0.00206243
0.00324718
0.00464887
0.00628152
0.00817835
0.0104407
0.0133279
0.0174341
-0.00780241
-0.00703288
-0.0043166
-0.00165754
0.000408146
0.00183486
0.00269648
0.00307436
0.00303264
0.00264576
0.00202128
0.00129013
0.000568798
-6.51951e-05
-0.000576453
-0.000960942
-0.00123626
-0.0014308
-0.00157514
-0.00169566
-0.00181245
-0.00193913
-0.00208342
-0.00224909
-0.00243636
-0.00264439
-0.00287059
-0.00311271
-0.00336782
-0.00363401
-0.00390948
-0.00419327
-0.00448478
-0.00478355
-0.00509008
-0.00540457
-0.00572859
-0.00606283
-0.00640924
-0.00676849
-0.00714231
-0.00753093
-0.00793467
-0.00835364
-0.00878574
-0.0092318
-0.00968889
-0.0101575
-0.0106373
-0.0111251
-0.0116187
-0.0121099
-0.0125877
-0.0130374
-0.0134466
-0.0138064
-0.014112
-0.0143681
-0.0145777
-0.0147455
-0.0148785
-0.014978
-0.0150499
-0.0151059
-0.015158
-0.015218
-0.0152944
-0.015391
-0.0155092
-0.0156446
-0.0157932
-0.0159557
-0.0161344
-0.0163304
-0.0165425
-0.0167689
-0.0170065
-0.0172521
-0.0175065
-0.0177701
-0.0180428
-0.0183237
-0.0186076
-0.0188922
-0.0191778
-0.0194667
-0.0197639
-0.0200698
-0.0203819
-0.0206954
-0.0210059
-0.0213145
-0.0216236
-0.0219377
-0.0222595
-0.0225884
-0.0229234
-0.0232585
-0.0235915
-0.0239266
-0.0242635
-0.0246064
-0.0249576
-0.0253096
-0.0256608
-0.0260137
-0.026367
-0.0267279
-0.0270978
-0.0274694
-0.0278391
-0.0282072
-0.0285751
-0.0289498
-0.0293308
-0.0297158
-0.0301081
-0.0305025
-0.0308883
-0.0312662
-0.03165
-0.032055
-0.0324794
-0.0328912
-0.0332755
-0.0336665
-0.0340883
-0.0345109
-0.0349119
-0.0353201
-0.0357512
-0.0361821
-0.0366
-0.0370243
-0.0374589
-0.0378936
-0.0383251
-0.038762
-0.0392046
-0.0396504
-0.0400969
-0.0405465
-0.0410006
-0.0414592
-0.0419181
-0.0423796
-0.0428451
-0.0433165
-0.0437886
-0.0442659
-0.044746
-0.0452311
-0.0457167
-0.0462072
-0.0467009
-0.047199
-0.0476991
-0.0482039
-0.0487113
-0.0492245
-0.0497394
-0.0502615
-0.0507848
-0.0513156
-0.0518471
-0.0523857
-0.0529257
-0.0534721
-0.0540204
-0.0545755
-0.0551319
-0.0556965
-0.0562611
-0.0568352
-0.0574087
-0.0579919
-0.0585751
-0.0591675
-0.05976
-0.0603621
-0.0609632
-0.0615753
-0.062185
-0.0628063
-0.0634248
-0.0640544
-0.0646805
-0.0653176
-0.0659488
-0.0665916
-0.0672246
-0.0678681
-0.0684973
-0.0691322
-0.0697445
-0.0703545
-0.0709215
-0.0714699
-0.071923
-0.0723364
-0.00839069
-0.00746726
-0.00459096
-0.0018421
0.000322254
0.00185429
0.00278363
0.00317041
0.00309481
0.00266537
0.00201376
0.00127285
0.000551564
-7.96636e-05
-0.000589509
-0.000974589
-0.00125155
-0.00144751
-0.00159242
-0.00171253
-0.00182833
-0.00195382
-0.00209705
-0.00226198
-0.00244877
-0.00265666
-0.00288276
-0.00312498
-0.00338003
-0.00364625
-0.00392155
-0.00420519
-0.00449647
-0.00479492
-0.00510121
-0.00541511
-0.00573884
-0.00607226
-0.00641814
-0.00677643
-0.0071491
-0.00753666
-0.0079385
-0.00835607
-0.00878603
-0.00922988
-0.00968502
-0.0101505
-0.0106266
-0.0111102
-0.0115997
-0.0120869
-0.0125616
-0.0130097
-0.0134183
-0.0137792
-0.0140864
-0.0143444
-0.0145566
-0.0147266
-0.0148617
-0.014964
-0.0150378
-0.0150953
-0.0151492
-0.0152108
-0.0152885
-0.015386
-0.0155044
-0.0156405
-0.0157894
-0.0159519
-0.0161306
-0.016327
-0.0165395
-0.0167661
-0.0170039
-0.0172496
-0.017504
-0.0177676
-0.0180402
-0.0183212
-0.018605
-0.0188897
-0.0191754
-0.0194645
-0.0197617
-0.0200676
-0.0203797
-0.0206933
-0.0210038
-0.0213125
-0.0216218
-0.021936
-0.0222578
-0.0225867
-0.0229217
-0.0232568
-0.02359
-0.0239252
-0.0242622
-0.0246051
-0.0249564
-0.0253084
-0.0256596
-0.0260127
-0.026366
-0.0267268
-0.0270968
-0.0274685
-0.0278383
-0.0282064
-0.0285743
-0.0289491
-0.0293301
-0.029715
-0.0301074
-0.0305019
-0.0308879
-0.0312657
-0.0316493
-0.0320543
-0.032479
-0.032891
-0.0332751
-0.033666
-0.034088
-0.0345108
-0.0349116
-0.0353197
-0.035751
-0.036182
-0.0365998
-0.0370241
-0.0374588
-0.0378935
-0.0383249
-0.0387619
-0.0392045
-0.0396503
-0.0400969
-0.0405464
-0.0410006
-0.0414591
-0.0419181
-0.0423796
-0.0428451
-0.0433164
-0.0437886
-0.0442658
-0.044746
-0.0452311
-0.0457167
-0.0462072
-0.0467009
-0.047199
-0.0476991
-0.0482039
-0.0487113
-0.0492245
-0.0497394
-0.0502615
-0.0507848
-0.0513156
-0.0518471
-0.0523857
-0.0529257
-0.0534721
-0.0540204
-0.0545755
-0.0551319
-0.0556965
-0.0562611
-0.0568352
-0.0574087
-0.057992
-0.0585751
-0.0591675
-0.05976
-0.0603621
-0.0609632
-0.0615753
-0.062185
-0.0628063
-0.0634248
-0.0640544
-0.0646805
-0.0653176
-0.0659488
-0.0665916
-0.0672246
-0.0678681
-0.0684973
-0.0691323
-0.0697445
-0.0703547
-0.0709216
-0.0714703
-0.0719246
-0.072337
-0.00838553
-0.00788283
-0.00524957
-0.00244345
-1.95905e-05
0.00178527
0.00289865
0.00333573
0.00320946
0.00270213
0.00199695
0.00123684
0.000517483
-0.000105549
-0.000608946
-0.00099153
-0.0012689
-0.00146624
-0.00161195
-0.00173183
-0.00184647
-0.00197048
-0.00211232
-0.00227626
-0.00246261
-0.00267046
-0.0028969
-0.00313954
-0.00339511
-0.00366164
-0.00393726
-0.00422097
-0.00451235
-0.00481069
-0.00511682
-0.00543042
-0.00575363
-0.00608653
-0.00643143
-0.0067888
-0.00715978
-0.00754551
-0.00794475
-0.00835912
-0.00878558
-0.00922483
-0.00967524
-0.0101347
-0.0106036
-0.0110793
-0.0115597
-0.0120374
-0.0125029
-0.0129436
-0.0133467
-0.0137051
-0.0140133
-0.0142738
-0.0144905
-0.0146668
-0.0148078
-0.0149176
-0.0150005
-0.0150658
-0.0151271
-0.0151951
-0.0152779
-0.0153793
-0.0154995
-0.0156369
-0.0157879
-0.015952
-0.0161315
-0.0163285
-0.0165415
-0.0167684
-0.0170066
-0.0172527
-0.0175072
-0.0177704
-0.018042
-0.0183218
-0.0186047
-0.0188893
-0.0191754
-0.0194651
-0.0197626
-0.0200682
-0.0203794
-0.0206921
-0.0210022
-0.0213111
-0.021621
-0.0219357
-0.0222577
-0.0225863
-0.0229206
-0.0232553
-0.0235884
-0.0239241
-0.0242615
-0.0246043
-0.0249553
-0.025307
-0.0256582
-0.0260115
-0.026365
-0.0267259
-0.0270956
-0.0274671
-0.0278368
-0.0282051
-0.0285731
-0.028948
-0.029329
-0.0297138
-0.0301061
-0.0305005
-0.0308865
-0.0312647
-0.0316485
-0.0320533
-0.0324777
-0.0328896
-0.0332741
-0.0336651
-0.0340871
-0.0345098
-0.0349107
-0.0353189
-0.0357502
-0.0361812
-0.036599
-0.0370234
-0.0374581
-0.0378928
-0.0383243
-0.0387613
-0.039204
-0.0396497
-0.0400964
-0.0405459
-0.0410001
-0.0414588
-0.0419177
-0.0423793
-0.0428448
-0.0433162
-0.0437883
-0.0442656
-0.0447457
-0.0452309
-0.0457165
-0.0462071
-0.0467008
-0.0471989
-0.047699
-0.0482038
-0.0487112
-0.0492244
-0.0497393
-0.0502615
-0.0507847
-0.0513155
-0.0518471
-0.0523857
-0.0529256
-0.0534721
-0.0540203
-0.0545755
-0.0551319
-0.0556965
-0.0562611
-0.0568352
-0.0574087
-0.057992
-0.0585752
-0.0591676
-0.05976
-0.0603621
-0.0609632
-0.0615753
-0.0621851
-0.0628064
-0.0634248
-0.0640544
-0.0646806
-0.0653176
-0.065949
-0.0665917
-0.0672248
-0.0678683
-0.0684977
-0.0691327
-0.0697452
-0.0703557
-0.0709232
-0.0714726
-0.0719328
-0.072345
-0.00625635
-0.00648262
-0.00571828
-0.00342607
-0.00065079
0.00158325
0.00294444
0.00343381
0.00325351
0.00267599
0.00192645
0.00115351
0.000441704
-0.000166887
-0.000657483
-0.00103216
-0.00130609
-0.00150249
-0.00164755
-0.00176613
-0.00187853
-0.00199987
-0.00213906
-0.00230087
-0.00248575
-0.00269279
-0.00291905
-0.00316172
-0.00341763
-0.00368424
-0.00396012
-0.00424369
-0.00453513
-0.00483318
-0.00513901
-0.00545218
-0.00577454
-0.00610677
-0.00645016
-0.00680618
-0.00717468
-0.0075576
-0.00795323
-0.00836289
-0.00878452
-0.00921757
-0.00966152
-0.0101137
-0.0105745
-0.0110414
-0.0115117
-0.0119784
-0.0124331
-0.012865
-0.0132621
-0.013618
-0.0139274
-0.0141913
-0.0144132
-0.0145965
-0.0147448
-0.0148627
-0.0149555
-0.0150305
-0.0151003
-0.0151759
-0.0152648
-0.0153709
-0.0154939
-0.0156328
-0.0157857
-0.0159512
-0.0161313
-0.0163285
-0.0165419
-0.0167694
-0.0170081
-0.0172549
-0.0175097
-0.0177725
-0.0180428
-0.0183208
-0.0186025
-0.0188868
-0.0191736
-0.0194645
-0.0197625
-0.0200676
-0.0203774
-0.0206883
-0.0209979
-0.0213073
-0.0216183
-0.0219343
-0.0222567
-0.0225846
-0.0229178
-0.0232515
-0.0235847
-0.0239213
-0.0242596
-0.0246025
-0.0249527
-0.0253039
-0.025655
-0.0260088
-0.026363
-0.0267239
-0.0270931
-0.0274641
-0.0278337
-0.0282024
-0.0285708
-0.0289459
-0.029327
-0.0297118
-0.0301034
-0.0304972
-0.0308836
-0.031263
-0.0316474
-0.0320516
-0.0324748
-0.0328865
-0.0332718
-0.0336635
-0.0340852
-0.0345076
-0.034909
-0.0353176
-0.0357485
-0.0361793
-0.0365974
-0.037022
-0.0374566
-0.0378914
-0.038323
-0.0387602
-0.0392028
-0.0396486
-0.0400953
-0.040545
-0.0409992
-0.0414579
-0.0419169
-0.0423785
-0.0428441
-0.0433155
-0.0437877
-0.044265
-0.0447452
-0.0452303
-0.045716
-0.0462066
-0.0467003
-0.0471985
-0.0476986
-0.0482035
-0.0487109
-0.0492242
-0.0497391
-0.0502613
-0.0507845
-0.0513153
-0.0518469
-0.0523855
-0.0529255
-0.0534719
-0.0540202
-0.0545754
-0.0551318
-0.0556964
-0.056261
-0.0568351
-0.0574087
-0.0579919
-0.0585751
-0.0591675
-0.05976
-0.0603621
-0.0609633
-0.0615753
-0.0621851
-0.0628064
-0.063425
-0.0640545
-0.0646808
-0.0653177
-0.0659493
-0.0665919
-0.0672254
-0.0678687
-0.0684985
-0.0691335
-0.0697468
-0.0703575
-0.0709271
-0.0714771
-0.0719474
-0.0723609
-0.00915776
-0.00878069
-0.00612215
-0.00300505
-0.000178568
0.00192054
0.0031572
0.00355754
0.00331618
0.00269554
0.00191722
0.00112939
0.000413817
-0.000192442
-0.000678928
-0.00105062
-0.0013237
-0.00152087
-0.00166707
-0.00178616
-0.0018981
-0.00201822
-0.00215593
-0.00231639
-0.00250046
-0.00270723
-0.00293386
-0.00317719
-0.00343402
-0.00370144
-0.00397807
-0.00426219
-0.00455401
-0.00485229
-0.00515802
-0.00547099
-0.00579266
-0.00612412
-0.00646608
-0.00682036
-0.00718637
-0.00756598
-0.00795779
-0.00836238
-0.00877861
-0.00920515
-0.00964185
-0.0100862
-0.0105382
-0.0109952
-0.0114543
-0.0119097
-0.0123535
-0.0127768
-0.0131687
-0.0135224
-0.0138329
-0.0141005
-0.0143277
-0.0145178
-0.014674
-0.0148003
-0.0149032
-0.014989
-0.0150686
-0.0151527
-0.0152484
-0.0153599
-0.0154865
-0.0156273
-0.0157817
-0.0159485
-0.016129
-0.0163264
-0.0165404
-0.0167689
-0.0170088
-0.0172567
-0.017512
-0.0177742
-0.0180429
-0.0183189
-0.0185993
-0.0188833
-0.0191712
-0.0194636
-0.0197624
-0.020067
-0.0203749
-0.0206839
-0.0209927
-0.0213027
-0.0216153
-0.0219328
-0.0222558
-0.0225829
-0.0229144
-0.0232471
-0.0235804
-0.0239181
-0.0242576
-0.0246004
-0.0249497
-0.0253002
-0.0256512
-0.0260056
-0.0263606
-0.0267215
-0.0270899
-0.0274603
-0.0278299
-0.0281989
-0.0285679
-0.0289432
-0.0293244
-0.029709
-0.0300996
-0.0304927
-0.0308798
-0.0312607
-0.0316459
-0.0320492
-0.0324706
-0.0328819
-0.0332687
-0.0336614
-0.0340823
-0.0345043
-0.0349065
-0.0353157
-0.0357459
-0.0361764
-0.0365949
-0.0370198
-0.0374542
-0.037889
-0.038321
-0.0387583
-0.039201
-0.0396467
-0.0400936
-0.0405434
-0.0409977
-0.0414563
-0.0419154
-0.0423772
-0.0428429
-0.0433144
-0.0437866
-0.044264
-0.0447441
-0.0452293
-0.0457151
-0.0462058
-0.0466995
-0.0471977
-0.0476979
-0.0482028
-0.0487103
-0.0492237
-0.0497386
-0.0502609
-0.0507841
-0.0513149
-0.0518465
-0.0523851
-0.0529251
-0.0534716
-0.0540199
-0.0545751
-0.0551316
-0.0556962
-0.0562608
-0.0568349
-0.0574086
-0.0579917
-0.0585751
-0.0591673
-0.05976
-0.060362
-0.0609634
-0.0615752
-0.0621853
-0.0628063
-0.0634252
-0.0640544
-0.0646811
-0.0653178
-0.0659498
-0.0665921
-0.0672262
-0.0678692
-0.0685
-0.0691346
-0.0697495
-0.07036
-0.0709332
-0.0714841
-0.0719665
-0.0723842
-0.0100158
-0.00918228
-0.00579366
-0.00232703
0.00042777
0.00231778
0.00334771
0.00362453
0.00332827
0.00268177
0.00188981
0.00109453
0.000375642
-0.000230837
-0.00071559
-0.00108482
-0.00135575
-0.00155146
-0.00169655
-0.00181446
-0.00192484
-0.00204306
-0.00217879
-0.00233742
-0.00252013
-0.00272605
-0.00295249
-0.00319605
-0.00345346
-0.00372152
-0.00399874
-0.00428337
-0.00457541
-0.00487387
-0.0051793
-0.00549189
-0.00581262
-0.00614293
-0.00648324
-0.00683527
-0.00719857
-0.00757445
-0.00796208
-0.00836135
-0.00877165
-0.00919135
-0.00962028
-0.0100563
-0.0104989
-0.0109455
-0.0113934
-0.0118377
-0.0122714
-0.0126867
-0.0130735
-0.0134249
-0.0137364
-0.0140072
-0.0142396
-0.0144361
-0.0146002
-0.0147352
-0.0148479
-0.0149449
-0.0150348
-0.0151281
-0.0152312
-0.0153481
-0.0154786
-0.0156215
-0.0157772
-0.0159448
-0.0161259
-0.0163237
-0.0165385
-0.0167683
-0.0170097
-0.0172589
-0.0175146
-0.0177761
-0.018043
-0.0183167
-0.0185957
-0.0188798
-0.0191688
-0.0194629
-0.0197625
-0.0200664
-0.0203723
-0.0206792
-0.0209871
-0.0212979
-0.0216122
-0.0219314
-0.0222549
-0.022581
-0.0229106
-0.0232421
-0.0235756
-0.0239147
-0.0242555
-0.0245981
-0.0249462
-0.0252959
-0.0256469
-0.026002
-0.0263579
-0.0267188
-0.0270863
-0.0274559
-0.0278255
-0.0281951
-0.0285646
-0.0289401
-0.0293213
-0.0297055
-0.0300953
-0.0304878
-0.0308756
-0.031258
-0.0316439
-0.0320461
-0.0324657
-0.0328767
-0.0332652
-0.0336589
-0.0340789
-0.0345004
-0.0349037
-0.0353134
-0.0357428
-0.0361729
-0.0365919
-0.0370171
-0.0374513
-0.0378861
-0.0383186
-0.0387562
-0.0391987
-0.0396445
-0.0400915
-0.0405415
-0.0409958
-0.0414544
-0.0419136
-0.0423757
-0.0428414
-0.043313
-0.0437853
-0.0442627
-0.0447429
-0.0452281
-0.045714
-0.0462047
-0.0466985
-0.0471968
-0.0476971
-0.048202
-0.0487096
-0.0492231
-0.0497381
-0.0502603
-0.0507836
-0.0513144
-0.051846
-0.0523846
-0.0529247
-0.0534711
-0.0540196
-0.0545747
-0.0551313
-0.0556958
-0.0562607
-0.0568345
-0.0574085
-0.0579914
-0.058575
-0.0591671
-0.05976
-0.0603618
-0.0609634
-0.061575
-0.0621855
-0.0628062
-0.0634255
-0.0640544
-0.0646816
-0.0653178
-0.0659506
-0.0665924
-0.0672274
-0.0678698
-0.0685019
-0.069136
-0.0697531
-0.0703631
-0.070941
-0.0714932
-0.0719875
-0.0724122
-0.0103886
-0.00965881
-0.00609212
-0.00240272
0.000487436
0.00241739
0.00340851
0.0036209
0.00328367
0.00262476
0.0018319
0.00103693
0.000317561
-0.000289156
-0.000772946
-0.00113939
-0.0014063
-0.00159762
-0.00173872
-0.00185317
-0.00196051
-0.00207591
-0.00220899
-0.00236522
-0.00254589
-0.0027503
-0.00297584
-0.00321911
-0.00347667
-0.00374512
-0.00402277
-0.00430776
-0.00459996
-0.00489839
-0.00520343
-0.00551534
-0.00583495
-0.00616375
-0.0065021
-0.00685157
-0.00721174
-0.00758361
-0.00796654
-0.00836014
-0.00876394
-0.0091763
-0.00959703
-0.0100241
-0.010457
-0.0108932
-0.0113303
-0.0117643
-0.0121884
-0.0125961
-0.0129775
-0.0133264
-0.0136383
-0.013912
-0.0141494
-0.014352
-0.0145236
-0.0146673
-0.0147898
-0.0148979
-0.0149988
-0.0151019
-0.0152129
-0.0153356
-0.0154701
-0.0156153
-0.0157718
-0.0159401
-0.0161219
-0.0163204
-0.0165362
-0.0167676
-0.0170108
-0.0172614
-0.0175174
-0.0177778
-0.0180428
-0.0183143
-0.018592
-0.0188762
-0.0191666
-0.0194624
-0.0197628
-0.0200658
-0.0203695
-0.020674
-0.0209811
-0.0212929
-0.021609
-0.0219299
-0.0222539
-0.0225787
-0.0229063
-0.0232366
-0.0235705
-0.0239112
-0.0242533
-0.0245956
-0.0249423
-0.0252912
-0.0256423
-0.0259983
-0.026355
-0.0267157
-0.0270822
-0.0274512
-0.0278209
-0.028191
-0.028561
-0.0289366
-0.0293177
-0.0297017
-0.0300908
-0.0304827
-0.0308712
-0.0312549
-0.0316414
-0.0320427
-0.0324607
-0.0328714
-0.0332615
-0.033656
-0.0340751
-0.0344962
-0.0349007
-0.0353108
-0.0357395
-0.0361692
-0.0365888
-0.0370143
-0.0374482
-0.0378831
-0.0383159
-0.0387538
-0.0391963
-0.039642
-0.0400893
-0.0405394
-0.0409937
-0.0414523
-0.0419117
-0.0423739
-0.0428398
-0.0433114
-0.0437838
-0.0442613
-0.0447415
-0.0452267
-0.0457127
-0.0462035
-0.0466974
-0.0471957
-0.0476961
-0.0482012
-0.0487088
-0.0492223
-0.0497374
-0.0502597
-0.050783
-0.0513138
-0.0518455
-0.052384
-0.0529242
-0.0534706
-0.0540192
-0.0545742
-0.055131
-0.0556954
-0.0562605
-0.0568341
-0.0574084
-0.0579911
-0.058575
-0.0591668
-0.05976
-0.0603615
-0.0609636
-0.0615748
-0.0621857
-0.062806
-0.0634259
-0.0640543
-0.0646822
-0.0653179
-0.0659515
-0.0665926
-0.0672288
-0.0678705
-0.0685042
-0.0691376
-0.0697573
-0.0703669
-0.0709497
-0.0715042
-0.0720092
-0.0724426
-0.0109091
-0.0102443
-0.00657396
-0.0026414
0.000464472
0.00252294
0.00355164
0.00373842
0.00335284
0.0026509
0.00182846
0.00101504
0.000284459
-0.000328702
-0.000815192
-0.00118127
-0.00144559
-0.0016333
-0.00177074
-0.001882
-0.00198672
-0.00209993
-0.00223112
-0.00238567
-0.00256497
-0.00276839
-0.00299343
-0.00323673
-0.00349473
-0.00376394
-0.0040424
-0.00432817
-0.0046209
-0.00491964
-0.0052246
-0.005536
-0.00585465
-0.00618196
-0.00651834
-0.00686518
-0.00722205
-0.00758973
-0.00796764
-0.0083553
-0.00875226
-0.00915697
-0.00956929
-0.00998734
-0.0104106
-0.0108368
-0.0112635
-0.0116875
-0.0121023
-0.012502
-0.0128778
-0.0132238
-0.0135359
-0.0138123
-0.0140543
-0.0142628
-0.0144415
-0.0145938
-0.0147259
-0.0148451
-0.0149576
-0.0150713
-0.0151912
-0.0153201
-0.0154589
-0.0156064
-0.0157638
-0.0159327
-0.0161153
-0.016315
-0.0165323
-0.0167656
-0.0170108
-0.017263
-0.0175192
-0.0177786
-0.0180416
-0.0183109
-0.0185874
-0.0188719
-0.0191638
-0.0194614
-0.0197625
-0.0200644
-0.0203658
-0.0206681
-0.0209744
-0.0212872
-0.0216053
-0.021928
-0.0222524
-0.0225759
-0.0229014
-0.0232306
-0.023565
-0.0239072
-0.0242506
-0.0245927
-0.0249379
-0.025286
-0.0256374
-0.025994
-0.0263516
-0.0267122
-0.0270778
-0.0274462
-0.027816
-0.0281867
-0.0285571
-0.0289327
-0.0293137
-0.0296977
-0.0300861
-0.0304774
-0.0308663
-0.0312513
-0.0316386
-0.0320391
-0.0324554
-0.0328658
-0.0332574
-0.0336529
-0.0340711
-0.0344918
-0.0348973
-0.035308
-0.0357359
-0.0361652
-0.0365855
-0.0370112
-0.0374448
-0.0378797
-0.0383131
-0.0387511
-0.0391936
-0.0396394
-0.0400868
-0.0405372
-0.0409914
-0.04145
-0.0419096
-0.042372
-0.042838
-0.0433097
-0.0437822
-0.0442597
-0.04474
-0.0452252
-0.0457113
-0.0462022
-0.0466962
-0.0471945
-0.047695
-0.0482002
-0.048708
-0.0492215
-0.0497368
-0.0502589
-0.0507824
-0.0513131
-0.051845
-0.0523834
-0.0529237
-0.05347
-0.0540188
-0.0545737
-0.0551307
-0.0556949
-0.0562603
-0.0568337
-0.0574082
-0.0579907
-0.0585749
-0.0591664
-0.0597601
-0.0603612
-0.0609637
-0.0615745
-0.062186
-0.0628057
-0.0634263
-0.0640541
-0.0646828
-0.0653179
-0.0659525
-0.0665929
-0.0672304
-0.0678713
-0.0685068
-0.0691395
-0.0697617
-0.0703715
-0.070959
-0.0715168
-0.0720312
-0.0724743
-0.0113245
-0.010674
-0.0069234
-0.002828
0.000444892
0.00263027
0.00372359
0.00390522
0.00347083
0.00271027
0.00183981
0.000994275
0.000244658
-0.000378605
-0.000868788
-0.00123415
-0.00149495
-0.001678
-0.00181061
-0.0019176
-0.00201866
-0.00212883
-0.00225748
-0.00240987
-0.00258745
-0.00278956
-0.00301389
-0.00325691
-0.00351514
-0.00378486
-0.00406399
-0.00435044
-0.00464363
-0.00494264
-0.0052474
-0.00555826
-0.00587576
-0.00620143
-0.00653554
-0.0068794
-0.00723264
-0.00759568
-0.00796818
-0.00834941
-0.00873922
-0.00913591
-0.00953956
-0.00994844
-0.0103619
-0.0107783
-0.0111948
-0.0116089
-0.0120143
-0.0124058
-0.012776
-0.0131191
-0.0134314
-0.0137103
-0.0139564
-0.0141705
-0.0143559
-0.0145167
-0.0146586
-0.0147889
-0.0149131
-0.015038
-0.0151675
-0.0153034
-0.0154467
-0.0155966
-0.015755
-0.0159244
-0.0161078
-0.0163086
-0.0165277
-0.0167633
-0.0170107
-0.0172646
-0.0175212
-0.0177794
-0.0180403
-0.0183073
-0.0185826
-0.0188675
-0.0191609
-0.0194604
-0.0197622
-0.0200629
-0.020362
-0.0206621
-0.0209676
-0.0212816
-0.0216017
-0.021926
-0.0222508
-0.0225728
-0.0228963
-0.0232244
-0.0235594
-0.0239031
-0.0242478
-0.0245896
-0.0249334
-0.0252807
-0.0256322
-0.0259896
-0.0263479
-0.0267086
-0.0270733
-0.027441
-0.0278109
-0.028182
-0.0285529
-0.0289286
-0.0293096
-0.0296935
-0.0300812
-0.0304718
-0.0308612
-0.0312475
-0.0316356
-0.0320354
-0.03245
-0.0328599
-0.033253
-0.0336495
-0.0340669
-0.0344871
-0.0348938
-0.035305
-0.0357321
-0.036161
-0.0365819
-0.037008
-0.0374413
-0.0378762
-0.0383101
-0.0387484
-0.0391908
-0.0396366
-0.0400843
-0.0405347
-0.040989
-0.0414476
-0.0419074
-0.04237
-0.0428362
-0.0433079
-0.0437806
-0.0442581
-0.0447384
-0.0452236
-0.0457099
-0.0462008
-0.0466949
-0.0471933