/*--------------------------------*- C++ -*----------------------------------*\
| =========                 |                                                 |
| \\      /  F ield         | OpenFOAM: The Open Source CFD Toolbox           |
|  \\    /   O peration     | Version:  v2012                                 |
|   \\  /    A nd           | Website:  www.openfoam.com                      |
|    \\/     M anipulation  |                                                 |
\*---------------------------------------------------------------------------*/
FoamFile
{
    version     2.0;
    format      ascii;
    class       surfaceScalarField;
    location    "0.7";
    object      phi;
}
// * * * * * * * * * * * * * * * * * * * * * * * * * * * * * * * * * * * * * //

dimensions      [0 3 -1 0 0 0 0];
oriented        oriented;


internalField   nonuniform List<scalar> 
17340
(
3.87625e-06
-1.22842e-07
3.88366e-06
8.93975e-08
3.87645e-06
-7.93176e-08
3.88453e-06
6.3767e-08
3.87719e-06
-5.10464e-08
3.88698e-06
3.80374e-08
3.87934e-06
-3.46091e-08
3.88837e-06
2.5731e-08
3.88276e-06
-2.48904e-08
3.88897e-06
1.86671e-08
3.88289e-06
-1.64344e-08
3.88652e-06
1.41704e-08
3.88249e-06
-9.30973e-09
3.88478e-06
1.03284e-08
3.88248e-06
-4.79339e-09
3.88469e-06
4.82648e-09
3.881e-06
6.17824e-10
3.87582e-06
8.75253e-09
3.86231e-06
1.84456e-08
2.66989e-08
3.84697e-06
4.17982e-06
-1.168e-07
4.19276e-06
7.646e-08
4.18245e-06
-6.90151e-08
4.19333e-06
5.2894e-08
4.18417e-06
-4.18881e-08
4.19508e-06
2.71293e-08
4.18698e-06
-2.65105e-08
4.19536e-06
1.73492e-08
4.19163e-06
-2.11603e-08
4.19308e-06
1.72205e-08
4.19471e-06
-1.80646e-08
4.19424e-06
1.46395e-08
4.19503e-06
-1.01062e-08
4.1937e-06
1.16658e-08
4.19543e-06
-6.53238e-09
4.19184e-06
8.42542e-09
4.19362e-06
-1.16996e-09
4.18264e-06
1.97399e-08
4.17789e-06
2.31885e-08
4.49336e-08
4.15966e-06
4.51304e-06
-1.09778e-07
4.5248e-06
6.47034e-08
4.51397e-06
-5.81869e-08
4.52341e-06
4.3453e-08
4.51475e-06
-3.3233e-08
4.52423e-06
1.7654e-08
4.51676e-06
-1.90427e-08
4.52494e-06
9.16831e-09
4.51988e-06
-1.60996e-08
4.5247e-06
1.2399e-08
4.5214e-06
-1.47592e-08
4.52284e-06
1.31997e-08
4.52183e-06
-9.09923e-09
4.52106e-06
1.24361e-08
4.52274e-06
-8.20913e-09
4.52281e-06
8.34877e-09
4.52432e-06
-2.6745e-09
4.51089e-06
3.31708e-08
4.49475e-06
3.93293e-08
6.11051e-08
4.47858e-06
4.87395e-06
-1.02784e-07
4.88541e-06
5.32427e-08
4.8737e-06
-4.64762e-08
4.8834e-06
3.37526e-08
4.8737e-06
-2.35304e-08
4.88465e-06
6.70742e-09
4.87402e-06
-8.41311e-09
4.88813e-06
-4.94329e-09
4.87437e-06
-2.33671e-09
4.89183e-06
-5.06541e-09
4.87606e-06
1.01249e-09
4.89404e-06
-4.78086e-09
4.87807e-06
6.86697e-09
4.89188e-06
-1.37336e-09
4.87495e-06
8.71991e-09
4.88493e-06
-1.62413e-09
4.87881e-06
3.44761e-09
4.93062e-06
-1.8645e-08
4.98239e-06
-1.24391e-08
-5.38759e-09
5.04888e-06
5.26344e-06
-9.55805e-08
5.27523e-06
4.14561e-08
5.26401e-06
-3.52522e-08
5.27193e-06
2.58337e-08
5.26545e-06
-1.70508e-08
5.26821e-06
3.93963e-09
5.26932e-06
-9.52162e-09
5.2683e-06
-3.9256e-09
5.26947e-06
-3.49904e-09
5.27036e-06
-5.95569e-09
5.26923e-06
2.13683e-09
5.26781e-06
-3.36096e-09
5.2685e-06
6.17906e-09
5.26667e-06
4.54436e-10
5.26914e-06
6.25323e-09
5.26808e-06
-5.63345e-10
5.26674e-06
4.78569e-09
5.25435e-06
-6.25414e-09
5.23934e-06
2.56769e-09
1.27462e-08
5.22121e-06
5.68389e-06
-8.80063e-08
5.69648e-06
2.8857e-08
5.68465e-06
-2.34159e-08
5.69303e-06
1.74516e-08
5.68586e-06
-9.88126e-09
5.68895e-06
8.49199e-10
5.68984e-06
-1.04125e-08
5.68746e-06
-1.54772e-09
5.69328e-06
-9.31662e-09
5.68907e-06
-1.74395e-09
5.69463e-06
-3.42389e-09
5.68692e-06
4.3503e-09
5.69085e-06
2.24758e-09
5.68523e-06
6.07097e-09
5.68867e-06
2.81441e-09
5.68218e-06
5.9299e-09
5.6865e-06
4.62117e-10
5.67553e-06
4.71582e-09
5.67209e-06
6.00669e-09
2.82317e-08
5.65661e-06
6.13809e-06
-8.02298e-08
6.15085e-06
1.61044e-08
6.14159e-06
-1.41572e-08
6.14672e-06
1.2323e-08
6.14266e-06
-5.82317e-09
6.14126e-06
2.25231e-09
6.14279e-06
-1.19496e-08
6.14331e-06
-2.06346e-09
6.14089e-06
-6.89496e-09
6.14441e-06
-5.27125e-09
6.14105e-06
-6.14814e-11
6.14216e-06
3.24537e-09
6.14009e-06
4.31573e-09
6.14086e-06
5.2968e-09
6.13867e-06
5.01067e-09
6.13871e-06
5.88692e-09
6.13438e-06
4.79062e-09
6.12974e-06
9.35576e-09
6.12171e-06
1.40356e-08
3.16587e-08
6.11828e-06
6.62889e-06
-7.25552e-08
6.64051e-06
4.483e-09
6.6379e-06
-1.15536e-08
6.63558e-06
1.46496e-08
6.6382e-06
-8.4417e-09
6.62992e-06
1.05291e-08
6.63614e-06
-1.8171e-08
6.63108e-06
3.00235e-09
6.63508e-06
-1.0898e-08
6.63091e-06
-1.10551e-09
6.6328e-06
-1.95133e-09
6.63e-06
6.04541e-09
6.63126e-06
3.0585e-09
6.62893e-06
7.62993e-09
6.62876e-06
5.17632e-09
6.62624e-06
8.40996e-09
6.62333e-06
7.70231e-09
6.61898e-06
1.37021e-08
6.61311e-06
1.9909e-08
3.36245e-08
6.61114e-06
7.15859e-06
-6.4712e-08
7.17145e-06
-8.37944e-09
7.16557e-06
-5.67762e-09
7.17076e-06
9.459e-09
7.15703e-06
5.29107e-09
7.17207e-06
-4.51351e-09
7.15785e-06
-3.94485e-09
7.16985e-06
-8.99809e-09
7.1654e-06
-6.44938e-09
7.16286e-06
1.43574e-09
7.16055e-06
3.52577e-10
7.161e-06
5.59966e-09
7.15886e-06
5.20364e-09
7.15802e-06
8.46728e-09
7.15638e-06
6.81316e-09
7.15458e-06
1.02067e-08
7.1514e-06
1.08867e-08
7.14791e-06
1.7195e-08
7.14437e-06
2.34419e-08
3.46315e-08
7.14337e-06
7.73132e-06
-5.74272e-08
7.74027e-06
-1.73318e-08
7.74262e-06
-8.02438e-09
7.73825e-06
1.38235e-08
7.73833e-06
5.21712e-09
7.73703e-06
-3.21881e-09
7.73068e-06
2.4101e-09
7.73263e-06
-1.09488e-08
7.73403e-06
-7.84592e-09
7.73174e-06
3.71651e-09
7.73066e-06
1.43518e-09
7.7308e-06
5.46265e-09
7.72977e-06
6.23236e-09
7.72885e-06
9.38824e-09
7.72696e-06
8.70278e-09
7.72525e-06
1.19113e-08
7.72229e-06
1.3852e-08
7.71963e-06
1.98593e-08
7.71715e-06
2.59163e-08
3.52951e-08
7.71649e-06
8.34937e-06
-5.03375e-08
8.35885e-06
-2.68142e-08
8.36039e-06
-9.56071e-09
8.35786e-06
1.63551e-08
8.36082e-06
2.25603e-09
8.34857e-06
9.03288e-09
8.35749e-06
-6.51736e-09
8.35058e-06
-4.0367e-09
8.34903e-06
-6.28829e-09
8.35046e-06
2.28572e-09
8.34836e-06
3.53173e-09
8.34701e-06
6.8161e-09
8.34612e-06
7.12181e-09
8.34527e-06
1.02351e-08
8.34346e-06
1.05113e-08
8.34168e-06
1.36925e-08
8.33921e-06
1.63223e-08
8.33712e-06
2.1952e-08
8.33541e-06
2.76208e-08
3.54439e-08
8.33526e-06
9.01699e-06
-4.36773e-08
9.0243e-06
-3.41227e-08
9.02454e-06
-9.8078e-09
9.0291e-06
1.17938e-08
9.02092e-06
1.0436e-08
9.02024e-06
9.71715e-09
9.02155e-06
-7.82422e-09
9.01695e-06
5.60919e-10
9.01345e-06
-2.78807e-09
9.01494e-06
7.97346e-10
9.01458e-06
3.89301e-09
9.01324e-06
8.15565e-09
9.01187e-06
8.48592e-09
9.01107e-06
1.10415e-08
9.00943e-06
1.2146e-08
9.00774e-06
1.53875e-08
9.00569e-06
1.83712e-08
9.00413e-06
2.35053e-08
9.00301e-06
2.87408e-08
3.54437e-08
9.00301e-06
9.73808e-06
-3.76578e-08
9.73912e-06
-3.51613e-08
9.74432e-06
-1.5011e-08
9.75004e-06
6.07731e-09
9.74522e-06
1.52623e-08
9.74474e-06
1.01942e-08
9.73814e-06
-1.22173e-09
9.73732e-06
1.37428e-09
9.73455e-06
-2.07957e-11
9.73345e-06
1.90062e-09
9.7332e-06
4.1402e-09
9.73273e-06
8.63124e-09
9.73127e-06
9.94447e-09
9.73021e-06
1.20975e-08
9.72871e-06
1.36459e-08
9.72725e-06
1.68521e-08
9.72556e-06
2.00626e-08
9.7245e-06
2.4562e-08
9.72412e-06
2.91181e-08
3.42821e-08
9.72529e-06
1.05167e-05
-3.22971e-08
1.05153e-05
-3.37415e-08
1.05212e-05
-2.09238e-08
1.05247e-05
2.59568e-09
1.05272e-05
1.27465e-08
1.05221e-05
1.5268e-08
1.05151e-05
5.78697e-09
1.05153e-05
1.16945e-09
1.05135e-05
1.81374e-09
1.05107e-05
4.73852e-09
1.05094e-05
5.42286e-09
1.05092e-05
8.7874e-09
1.05083e-05
1.08998e-08
1.05071e-05
1.33089e-08
1.05057e-05
1.49857e-08
1.05045e-05
1.81019e-08
1.05032e-05
2.13196e-08
1.05026e-05
2.52123e-08
1.05024e-05
2.92823e-08
3.35488e-08
1.05031e-05
1.13572e-05
-2.73496e-08
1.13545e-05
-3.09715e-08
1.13587e-05
-2.51362e-08
1.13624e-05
-1.15272e-09
1.1367e-05
8.20509e-09
1.13646e-05
1.76451e-08
1.1357e-05
1.34088e-08
1.13535e-05
4.66062e-09
1.13526e-05
2.66609e-09
1.13507e-05
6.67927e-09
1.13486e-05
7.52881e-09
1.13478e-05
9.59197e-09
1.13471e-05
1.15508e-08
1.13461e-05
1.43063e-08
1.1345e-05
1.61494e-08
1.13439e-05
1.91312e-08
1.13431e-05
2.21314e-08
1.13428e-05
2.55673e-08
1.13429e-05
2.91422e-08
3.39995e-08
1.13424e-05
1.22648e-05
-2.27663e-08
1.22636e-05
-2.97985e-08
1.22614e-05
-2.29089e-08
1.22672e-05
-7.0301e-09
1.22712e-05
4.18602e-09
1.22742e-05
1.4738e-08
1.22677e-05
1.98415e-08
1.226e-05
1.23798e-08
1.22573e-05
5.34117e-09
1.22569e-05
7.1303e-09
1.22552e-05
9.24147e-09
1.22538e-05
1.09655e-08
1.2253e-05
1.23783e-08
1.22523e-05
1.50045e-08
1.22514e-05
1.70598e-08
1.22506e-05
1.98395e-08
1.22502e-05
2.2565e-08
1.22502e-05
2.55698e-08
1.22508e-05
2.8519e-08
3.12176e-08
1.22536e-05
1.32448e-05
-1.86713e-08
1.32431e-05
-2.80603e-08
1.32401e-05
-1.98825e-08
1.32436e-05
-1.0526e-08
1.32468e-05
9.07397e-10
1.32511e-05
1.04872e-08
1.32504e-05
2.05165e-08
1.32425e-05
2.03086e-08
1.32361e-05
1.17484e-08
1.32344e-05
8.83318e-09
1.32338e-05
9.8455e-09
1.32326e-05
1.21626e-08
1.32315e-05
1.34425e-08
1.32309e-05
1.56251e-08
1.32303e-05
1.76869e-08
1.32299e-05
2.02365e-08
1.32299e-05
2.2582e-08
1.32302e-05
2.52136e-08
1.32311e-05
2.76724e-08
3.10147e-08
1.32313e-05
1.43033e-05
-1.52271e-08
1.4299e-05
-2.37805e-08
1.42983e-05
-1.9157e-08
1.4298e-05
-1.02464e-08
1.42997e-05
-8.28172e-10
1.43028e-05
7.4504e-09
1.43072e-05
1.60613e-08
1.43033e-05
2.42176e-08
1.42956e-05
1.94839e-08
1.4291e-05
1.34309e-08
1.42897e-05
1.1089e-08
1.42893e-05
1.25707e-08
1.42885e-05
1.42671e-08
1.42879e-05
1.62349e-08
1.42876e-05
1.80373e-08
1.42875e-05
2.02981e-08
1.42879e-05
2.22157e-08
1.42886e-05
2.44747e-08
1.42899e-05
2.63916e-08
2.79071e-08
1.4293e-05
1.5446e-05
-1.22703e-08
1.54409e-05
-1.86666e-08
1.544e-05
-1.82612e-08
1.54385e-05
-8.75675e-09
1.54387e-05
-1.03398e-09
1.54393e-05
6.93865e-09
1.54423e-05
1.30336e-08
1.54445e-05
2.19847e-08
1.54397e-05
2.43091e-08
1.5434e-05
1.91676e-08
1.54308e-05
1.42298e-08
1.543e-05
1.33434e-08
1.54298e-05
1.45416e-08
1.54295e-05
1.65285e-08
1.54294e-05
1.81547e-08
1.54296e-05
2.00205e-08
1.54303e-05
2.15313e-08
1.54314e-05
2.3353e-08
1.5433e-05
2.48624e-08
2.699e-08
1.54339e-05
1.66797e-05
-9.49532e-09
1.66757e-05
-1.47049e-08
1.6672e-05
-1.45642e-08
1.66707e-05
-7.462e-09
1.667e-05
-2.85196e-10
1.6669e-05
7.94139e-09
1.66689e-05
1.31001e-08
1.66717e-05
1.91624e-08
1.66722e-05
2.38056e-08
1.66683e-05
2.30732e-08
1.66643e-05
1.82796e-08
1.66623e-05
1.53455e-08
1.66619e-05
1.48932e-08
1.66621e-05
1.63809e-08
1.66624e-05
1.78145e-08
1.6663e-05
1.93921e-08
1.6664e-05
2.05539e-08
1.66655e-05
2.18499e-08
1.66675e-05
2.2919e-08
2.35756e-08
1.66709e-05
1.80118e-05
-6.94162e-09
1.80084e-05
-1.1253e-08
1.80035e-05
-9.70877e-09
1.80014e-05
-5.29035e-09
1.80001e-05
1.02947e-09
1.79988e-05
9.1969e-09
1.79972e-05
1.47283e-08
1.79979e-05
1.83835e-08
1.79999e-05
2.18169e-08
1.79994e-05
2.36025e-08
1.79964e-05
2.12629e-08
1.79939e-05
1.79157e-08
1.79928e-05
1.59356e-08
1.79931e-05
1.61112e-08
1.79938e-05
1.70995e-08
1.79949e-05
1.83025e-08
1.79962e-05
1.92561e-08
1.7998e-05
2.00144e-08
1.80002e-05
2.06966e-08
2.18281e-08
1.8002e-05
1.94504e-05
-4.67806e-09
1.94462e-05
-7.0356e-09
1.94422e-05
-5.72091e-09
1.94387e-05
-1.75539e-09
1.94365e-05
3.16097e-09
1.94352e-05
1.05584e-08
1.94337e-05
1.62587e-08
1.94327e-05
1.9339e-08
1.94336e-05
2.09182e-08
1.94345e-05
2.26639e-08
1.94337e-05
2.21173e-08
1.94318e-05
1.98167e-08
1.94305e-05
1.72074e-08
1.94305e-05
1.61626e-08
1.94314e-05
1.61163e-08
1.94329e-05
1.68907e-08
1.94346e-05
1.7465e-08
1.94368e-05
1.78774e-08
1.94393e-05
1.8166e-08
1.86321e-08
1.94425e-05
2.10038e-05
-2.67716e-09
2.10001e-05
-3.32244e-09
2.09958e-05
-1.45465e-09
2.09915e-05
2.57931e-09
2.0988e-05
6.59917e-09
2.09864e-05
1.21702e-08
2.09852e-05
1.75305e-08
2.09839e-05
2.06232e-08
2.09834e-05
2.14185e-08
2.09839e-05
2.21018e-08
2.09843e-05
2.17588e-08
2.09837e-05
2.04221e-08
2.09829e-05
1.79928e-08
2.09829e-05
1.6213e-08
2.09838e-05
1.52173e-08
2.09854e-05
1.52028e-08
2.09876e-05
1.5277e-08
2.09901e-05
1.53844e-08
2.0993e-05
1.52962e-08
1.51464e-08
2.09965e-05
2.26811e-05
-8.50462e-10
2.26777e-05
7.21258e-11
2.26732e-05
3.00174e-09
2.26685e-05
7.33531e-09
2.26642e-05
1.08596e-08
2.26618e-05
1.45525e-08
2.26606e-05
1.87613e-08
2.26593e-05
2.19191e-08
2.26581e-05
2.25981e-08
2.26579e-05
2.2301e-08
2.26582e-05
2.15119e-08
2.26585e-05
2.00796e-08
2.26585e-05
1.79811e-08
2.26589e-05
1.58153e-08
2.266e-05
1.41973e-08
2.26617e-05
1.34148e-08
2.26642e-05
1.27992e-08
2.26672e-05
1.2439e-08
2.26705e-05
1.19556e-08
1.15786e-08
2.26741e-05
2.44922e-05
8.90346e-10
2.44882e-05
4.05582e-09
2.44839e-05
7.28557e-09
2.44794e-05
1.18631e-08
2.4475e-05
1.5305e-08
2.44716e-05
1.79434e-08
2.44698e-05
2.05471e-08
2.44685e-05
2.32308e-08
2.44672e-05
2.3921e-08
2.44663e-05
2.31661e-08
2.44661e-05
2.17138e-08
2.44664e-05
1.97182e-08
2.44671e-05
1.73197e-08
2.44681e-05
1.48162e-08
2.44695e-05
1.28033e-08
2.44715e-05
1.14034e-08
2.44742e-05
1.00768e-08
2.44776e-05
9.07356e-09
2.44813e-05
8.26011e-09
7.74309e-09
2.44851e-05
2.64479e-05
2.60301e-09
2.6444e-05
7.95424e-09
2.64392e-05
1.20022e-08
2.64348e-05
1.63236e-08
2.64303e-05
1.97677e-08
2.64265e-05
2.1805e-08
2.64235e-05
2.34758e-08
2.64218e-05
2.49752e-08
2.64204e-05
2.52744e-08
2.64193e-05
2.42579e-08
2.64187e-05
2.23598e-08
2.64186e-05
1.97718e-08
2.64192e-05
1.67916e-08
2.64204e-05
1.35583e-08
2.64222e-05
1.09762e-08
2.64249e-05
8.77306e-09
2.6428e-05
6.91656e-09
2.64317e-05
5.41713e-09
2.64357e-05
4.22448e-09
3.29164e-09
2.64402e-05
2.85596e-05
4.32755e-09
2.85561e-05
1.14556e-08
2.85509e-05
1.72398e-08
2.85461e-05
2.10477e-08
2.85418e-05
2.41453e-08
2.85377e-05
2.58617e-08
2.85337e-05
2.7441e-08
2.85309e-05
2.78004e-08
2.85289e-05
2.72372e-08
2.85278e-05
2.54261e-08
2.85273e-05
2.27924e-08
2.8527e-05
2.01227e-08
2.85271e-05
1.66591e-08
2.85276e-05
1.30414e-08
2.8529e-05
9.61667e-09
2.85314e-05
6.41658e-09
2.85347e-05
3.60199e-09
2.8539e-05
1.12742e-09
2.85438e-05
-6.24641e-10
-1.71444e-09
2.85488e-05
3.08399e-05
6.09764e-09
3.08363e-05
1.50671e-08
3.08313e-05
2.22582e-08
3.08262e-05
2.61504e-08
3.08216e-05
2.86907e-08
3.08173e-05
3.01562e-08
3.0813e-05
3.17368e-08
3.08091e-05
3.17553e-08
3.08056e-05
3.07595e-08
3.08033e-05
2.77116e-08
3.0802e-05
2.40199e-08
3.08021e-05
2.00341e-08
3.08029e-05
1.58648e-08
3.08044e-05
1.15992e-08
3.08064e-05
7.56916e-09
3.08089e-05
3.88899e-09
3.08117e-05
8.39888e-10
3.08155e-05
-2.64049e-09
3.08202e-05
-5.31548e-09
-7.29861e-09
3.08258e-05
3.33022e-05
7.97681e-09
3.3299e-05
1.83209e-08
3.32939e-05
2.73266e-08
3.32888e-05
3.12736e-08
3.32834e-05
3.40452e-08
3.32782e-05
3.53363e-08
3.32737e-05
3.63097e-08
3.32702e-05
3.51807e-08
3.32664e-05
3.45796e-08
3.32627e-05
3.14238e-08
3.3259e-05
2.77729e-08
3.32559e-05
2.31039e-08
3.32535e-05
1.82248e-08
3.32526e-05
1.25766e-08
3.32533e-05
6.78683e-09
3.3257e-05
2.24937e-10
3.32615e-05
-3.63857e-09
3.32663e-05
-7.51167e-09
3.32718e-05
-1.08135e-08
-1.34119e-08
3.3278e-05
3.5961e-05
1.01508e-08
3.59585e-05
2.08097e-08
3.59535e-05
3.22613e-08
3.59495e-05
3.52838e-08
3.59424e-05
4.11669e-08
3.59355e-05
4.22429e-08
3.5928e-05
4.38382e-08
3.59235e-05
3.96307e-08
3.59201e-05
3.79673e-08
3.59178e-05
3.37972e-08
3.59153e-05
3.02041e-08
3.59136e-05
2.47797e-08
3.59121e-05
1.97305e-08
3.59112e-05
1.35361e-08
3.59101e-05
7.86565e-09
3.59084e-05
1.91464e-09
3.591e-05
-5.24701e-09
3.59147e-05
-1.2147e-08
3.59195e-05
-1.56739e-08
-1.96023e-08
3.59257e-05
3.88316e-05
1.30522e-08
3.88294e-05
2.29206e-08
3.88252e-05
3.65312e-08
3.88213e-05
3.9195e-08
3.88155e-05
4.6958e-08
3.88109e-05
4.68463e-08
3.88035e-05
5.12353e-08
3.87954e-05
4.77343e-08
3.87864e-05
4.69312e-08
3.87779e-05
4.22695e-08
3.87689e-05
3.92618e-08
3.87609e-05
3.27779e-08
3.87536e-05
2.69785e-08
3.87487e-05
1.8414e-08
3.87463e-05
1.03296e-08
3.87483e-05
-1.21427e-10
3.87496e-05
-6.50913e-09
3.87546e-05
-1.72093e-08
3.8765e-05
-2.60726e-08
-3.45492e-08
3.878e-05
4.1931e-05
1.71327e-08
4.19377e-05
1.61638e-08
4.1925e-05
4.92517e-08
4.19183e-05
4.59209e-08
4.19023e-05
6.29184e-08
4.19005e-05
4.86381e-08
4.18973e-05
5.44365e-08
4.18988e-05
4.62387e-08
4.18949e-05
5.07988e-08
4.18922e-05
4.50149e-08
4.18847e-05
4.67961e-08
4.18778e-05
3.95993e-08
4.18682e-05
3.65665e-08
4.18593e-05
2.73889e-08
4.18473e-05
2.2288e-08
4.18334e-05
1.37724e-08
4.18184e-05
8.53781e-09
4.18028e-05
-1.58742e-09
4.17879e-05
-1.11718e-08
-2.68936e-08
4.17802e-05
4.52819e-05
1.83734e-08
4.52783e-05
1.97337e-08
4.52781e-05
4.94504e-08
4.52772e-05
4.68678e-08
4.5275e-05
6.50899e-08
4.52641e-05
5.96098e-08
4.525e-05
6.84473e-08
4.52355e-05
6.08327e-08
4.5219e-05
6.7282e-08
4.52024e-05
6.15425e-08
4.51851e-05
6.41521e-08
4.51693e-05
5.54163e-08
4.51547e-05
5.11668e-08
4.51425e-05
3.95188e-08
4.51322e-05
3.26038e-08
4.51251e-05
2.08582e-08
4.5125e-05
8.70633e-09
4.51262e-05
-2.83922e-09
4.51406e-05
-2.55809e-08
-6.36952e-08
4.51774e-05
4.88993e-05
1.77038e-08
4.888e-05
3.90188e-08
4.88713e-05
5.8094e-08
4.88536e-05
6.45897e-08
4.88566e-05
6.20904e-08
4.88586e-05
5.76107e-08
4.88736e-05
5.34586e-08
4.8889e-05
4.54113e-08
4.8919e-05
3.72795e-08
4.8954e-05
2.65799e-08
4.90012e-05
1.69063e-08
4.90491e-05
7.56849e-09
4.91e-05
2.48152e-10
4.91504e-05
-1.08904e-08
4.92018e-05
-1.87596e-08
4.9247e-05
-2.43782e-08
4.92786e-05
-2.28316e-08
4.93007e-05
-2.49801e-08
4.93011e-05
-2.59722e-08
-2.22358e-08
4.92596e-05
5.28067e-05
1.3686e-08
5.28146e-05
3.11344e-08
5.28242e-05
4.85363e-08
5.28275e-05
6.12994e-08
5.28143e-05
7.52379e-08
5.27919e-05
8.00016e-08
5.27623e-05
8.30677e-08
5.27292e-05
7.84853e-08
5.26954e-05
7.1143e-08
5.26639e-05
5.80208e-08
5.26364e-05
4.44456e-08
5.26145e-05
2.95108e-08
5.25978e-05
1.68646e-08
5.25837e-05
3.26807e-09
5.25704e-05
-5.46911e-09
5.25654e-05
-1.94404e-08
5.25768e-05
-3.42279e-08
5.26021e-05
-5.02652e-08
5.26431e-05
-6.69344e-08
-8.62807e-08
5.27071e-05
5.70129e-05
1.9294e-08
5.69963e-05
4.77117e-08
5.69803e-05
6.45777e-08
5.6978e-05
6.36187e-08
5.69899e-05
6.33292e-08
5.70113e-05
5.85953e-08
5.70433e-05
5.10656e-08
5.70808e-05
4.096e-08
5.71208e-05
3.11326e-08
5.71571e-05
2.17229e-08
5.71882e-05
1.33346e-08
5.72124e-05
5.34271e-09
5.72332e-05
-3.88625e-09
5.72521e-05
-1.56786e-08
5.72701e-05
-2.34616e-08
5.72747e-05
-2.40653e-08
5.72676e-05
-2.71429e-08
5.72463e-05
-2.89526e-08
5.72086e-05
-2.91719e-08
-2.7763e-08
5.715e-05
6.1579e-05
1.11959e-08
6.1597e-05
2.97241e-08
6.16121e-05
4.94573e-08
6.16044e-05
7.13932e-08
6.15811e-05
8.65447e-08
6.15457e-05
9.40664e-08
6.15002e-05
9.65393e-08
6.14506e-05
9.05431e-08
6.14014e-05
8.03585e-08
6.13566e-05
6.65154e-08
6.1317e-05
5.29645e-08
6.12839e-05
3.83652e-08
6.12562e-05
2.38531e-08
6.12327e-05
7.80055e-09
6.12169e-05
-7.61237e-09
6.12182e-05
-2.54072e-08
6.12337e-05
-4.25812e-08
6.12646e-05
-5.99354e-08
6.13124e-05
-7.69242e-08
-9.53703e-08
6.138e-05
6.64803e-05
1.76767e-08
6.64717e-05
3.83631e-08
6.64692e-05
5.19146e-08
6.64859e-05
5.47422e-08
6.65112e-05
6.11872e-08
6.65415e-05
6.3839e-08
6.65716e-05
6.64057e-08
6.65973e-05
6.48442e-08
6.66161e-05
6.15222e-08
6.66278e-05
5.48331e-08
6.66332e-05
4.75533e-08
6.66334e-05
3.81395e-08
6.66291e-05
2.81529e-08
6.66202e-05
1.67175e-08
6.66059e-05
6.70964e-09
6.65872e-05
-6.72524e-09
6.65614e-05
-1.67192e-08
6.65269e-05
-2.54522e-08
6.64818e-05
-3.18354e-08
-3.55665e-08
6.6422e-05
7.18019e-05
1.09815e-08
7.18298e-05
1.04681e-08
7.18438e-05
3.79078e-08
7.18504e-05
4.81272e-08
7.18351e-05
7.64652e-08
7.1809e-05
8.9887e-08
7.17621e-05
1.13394e-07
7.17045e-05
1.22433e-07
7.16317e-05
1.34333e-07
7.15547e-05
1.31801e-07
7.14738e-05
1.28424e-07
7.13979e-05
1.14043e-07
7.13269e-05
9.91304e-08
7.12722e-05
7.14382e-08
7.12288e-05
5.01302e-08
7.11946e-05
2.75006e-08
7.11698e-05
8.04929e-09
7.11661e-05
-2.17271e-08
7.11899e-05
-5.56249e-08
-9.55023e-08
7.12498e-05
7.7524e-05
7.75496e-05
7.75763e-05
7.76152e-05
7.76465e-05
7.76765e-05
7.7692e-05
7.76992e-05
7.76897e-05
7.76698e-05
7.7635e-05
7.75911e-05
7.75315e-05
7.74535e-05
7.73683e-05
7.72859e-05
7.7211e-05
7.71445e-05
7.70907e-05
7.70341e-05
3.81917e-06
2.77977e-08
3.78443e-06
3.47461e-08
3.74767e-06
3.67539e-08
3.7046e-06
4.30761e-08
3.65573e-06
4.88674e-08
3.60463e-06
5.10971e-08
3.55453e-06
5.01056e-08
3.50684e-06
4.76815e-08
3.46115e-06
4.56971e-08
3.416e-06
4.51421e-08
3.3702e-06
4.5807e-08
3.32344e-06
4.67605e-08
3.27586e-06
4.75765e-08
3.22759e-06
4.82737e-08
3.1787e-06
4.88909e-08
3.12922e-06
4.94739e-08
3.07918e-06
5.00401e-08
3.02858e-06
5.06058e-08
2.97742e-06
5.11582e-08
2.92574e-06
5.16826e-08
2.87357e-06
5.21629e-08
2.82097e-06
5.25995e-08
2.76798e-06
5.29952e-08
2.71461e-06
5.3364e-08
2.6609e-06
5.37131e-08
2.60685e-06
5.40542e-08
2.55245e-06
5.43923e-08
2.49773e-06
5.47288e-08
2.44265e-06
5.50718e-08
2.38725e-06
5.54036e-08
2.3315e-06
5.57472e-08
2.27544e-06
5.60616e-08
2.21904e-06
5.63963e-08
2.16236e-06
5.66871e-08
2.10536e-06
5.69988e-08
2.0481e-06
5.72604e-08
1.99058e-06
5.75164e-08
1.93285e-06
5.77362e-08
1.87496e-06
5.78903e-08
1.81693e-06
5.803e-08
1.75891e-06
5.80193e-08
1.70093e-06
5.79738e-08
1.64321e-06
5.77259e-08
1.58587e-06
5.73394e-08
1.5291e-06
5.67705e-08
1.47317e-06
5.59303e-08
1.41829e-06
5.48809e-08
1.36473e-06
5.3557e-08
1.31277e-06
5.19548e-08
1.26277e-06
5.00021e-08
1.21512e-06
4.76542e-08
1.17026e-06
4.48561e-08
1.12862e-06
4.16366e-08
1.09059e-06
3.80344e-08
1.05648e-06
3.41059e-08
1.02643e-06
3.00594e-08
1.0003e-06
2.61283e-08
9.77978e-07
2.23188e-08
9.59203e-07
1.87752e-08
9.43567e-07
1.56358e-08
9.30901e-07
1.2666e-08
9.20742e-07
1.01594e-08
9.12615e-07
8.12657e-09
9.06205e-07
6.41009e-09
9.01022e-07
5.18273e-09
8.96742e-07
4.28037e-09
8.92993e-07
3.74897e-09
8.89424e-07
3.56926e-09
8.86023e-07
3.40072e-09
8.82745e-07
3.27774e-09
8.79447e-07
3.29803e-09
8.76104e-07
3.34349e-09
8.72706e-07
3.39786e-09
8.69179e-07
3.5267e-09
8.65498e-07
3.68099e-09
8.61649e-07
3.84871e-09
8.57637e-07
4.01254e-09
8.53426e-07
4.211e-09
8.4898e-07
4.44568e-09
8.44309e-07
4.6706e-09
8.39474e-07
4.83566e-09
8.34564e-07
4.90958e-09
8.29694e-07
4.87018e-09
8.2488e-07
4.81415e-09
8.20115e-07
4.76514e-09
8.15309e-07
4.80593e-09
8.10409e-07
4.90024e-09
8.05415e-07
4.99376e-09
8.00414e-07
5.00105e-09
7.95505e-07
4.90868e-09
7.90769e-07
4.73626e-09
7.86174e-07
4.5953e-09
7.8167e-07
4.50322e-09
7.77154e-07
4.51621e-09
7.72604e-07
4.55031e-09
7.68022e-07
4.58219e-09
7.63496e-07
4.52574e-09
7.59114e-07
4.38182e-09
7.54884e-07
4.23007e-09
7.50744e-07
4.13955e-09
7.46668e-07
4.07673e-09
7.42573e-07
4.09471e-09
7.38521e-07
4.05166e-09
7.34584e-07
3.93709e-09
7.30771e-07
3.81364e-09
7.27048e-07
3.72216e-09
7.23407e-07
3.6415e-09
7.1975e-07
3.65655e-09
7.16156e-07
3.59481e-09
7.12669e-07
3.48634e-09
7.09346e-07
3.32346e-09
7.06142e-07
3.20365e-09
7.03042e-07
3.09989e-09
6.99953e-07
3.08938e-09
6.9695e-07
3.00286e-09
6.93995e-07
2.95537e-09
6.91124e-07
2.87064e-09
6.88383e-07
2.74058e-09
6.85877e-07
2.5061e-09
6.83507e-07
2.37017e-09
6.81146e-07
2.36158e-09
6.78665e-07
2.48098e-09
6.76248e-07
2.41635e-09
6.74169e-07
2.07893e-09
6.72368e-07
1.80157e-09
6.70478e-07
1.88956e-09
6.68509e-07
1.96906e-09
6.66762e-07
1.74677e-09
6.65242e-07
1.52026e-09
6.6366e-07
1.58252e-09
6.62065e-07
1.59412e-09
6.6064e-07
1.42527e-09
6.59392e-07
1.24768e-09
6.5813e-07
1.26271e-09
6.56942e-07
1.18811e-09
6.55839e-07
1.10231e-09
6.54864e-07
9.75094e-10
6.53884e-07
9.80152e-10
6.52992e-07
8.92198e-10
6.52128e-07
8.63724e-10
6.5138e-07
7.48337e-10
6.50637e-07
7.42893e-10
6.4997e-07
6.67013e-10
6.49313e-07
6.57011e-10
6.48767e-07
5.45855e-10
6.48217e-07
5.50316e-10
6.47743e-07
4.73373e-10
6.47252e-07
4.91383e-10
6.4687e-07
3.81766e-10
6.46446e-07
4.24459e-10
6.46127e-07
3.18623e-10
6.4576e-07
3.66974e-10
6.45521e-07
2.39347e-10
6.45207e-07
3.13617e-10
6.45011e-07
1.95873e-10
6.44745e-07
2.66187e-10
6.44604e-07
1.4143e-10
6.44383e-07
2.20988e-10
6.44279e-07
1.03506e-10
6.44084e-07
1.94999e-10
6.44016e-07
6.78069e-11
6.43834e-07
1.8292e-10
6.43799e-07
3.49673e-11
6.43626e-07
1.72281e-10
6.43625e-07
1.39502e-12
6.4347e-07
1.55305e-10
6.43495e-07
-2.53015e-11
6.43361e-07
1.34293e-10
6.43406e-07
-4.56801e-11
6.43287e-07
1.18894e-10
6.43353e-07
-6.56257e-11
6.43238e-07
1.14619e-10
6.43327e-07
-8.8367e-11
6.43207e-07
1.19294e-10
6.43314e-07
-1.0614e-10
6.43188e-07
1.25316e-10
6.43303e-07
-1.14383e-10
6.43171e-07
1.314e-10
6.43289e-07
-1.17636e-10
6.43142e-07
1.46857e-10
6.43264e-07
-1.21613e-10
6.43087e-07
1.76788e-10
6.4321e-07
-1.23109e-10
6.4299e-07
2.19681e-10
6.43103e-07
-1.12873e-10
6.42826e-07
2.76787e-10
6.42911e-07
-8.42447e-11
6.42546e-07
3.64566e-10
6.42576e-07
-2.97689e-11
6.42063e-07
5.12988e-10
6.41988e-07
7.52984e-11
6.41223e-07
7.6448e-10
6.40915e-07
3.08059e-10
6.39719e-07
1.19606e-09
6.38859e-07
8.60022e-10
6.36881e-07
1.97761e-09
6.34507e-07
2.37379e-09
6.31034e-07
3.4732e-09
6.24456e-07
6.57873e-09
1.6306e-08
4.16087e-06
2.6584e-08
4.17855e-06
1.7072e-08
4.18974e-06
2.55577e-08
4.19067e-06
4.21507e-08
4.18477e-06
5.4762e-08
4.17785e-06
5.80219e-08
4.17222e-06
5.57364e-08
4.16847e-06
5.14335e-08
4.16571e-06
4.84561e-08
4.16282e-06
4.80248e-08
4.15914e-06
4.94872e-08
4.15432e-06
5.15805e-08
4.14846e-06
5.3442e-08
4.14176e-06
5.49769e-08
4.13439e-06
5.626e-08
4.1264e-06
5.74636e-08
4.11777e-06
5.86631e-08
4.10845e-06
5.99242e-08
4.0984e-06
6.12157e-08
4.08757e-06
6.25062e-08
4.07597e-06
6.37699e-08
4.0636e-06
6.49679e-08
4.05046e-06
6.61378e-08
4.03658e-06
6.72412e-08
4.02193e-06
6.83589e-08
4.00655e-06
6.94357e-08
3.99038e-06
7.05609e-08
3.97344e-06
7.16686e-08
3.95569e-06
7.28285e-08
3.9371e-06
7.39861e-08
3.91768e-06
7.51709e-08
3.89737e-06
7.63707e-08
3.8762e-06
7.75647e-08
3.85409e-06
7.87973e-08
3.8311e-06
7.99899e-08
3.80713e-06
8.12333e-08
3.78224e-06
8.24027e-08
3.75637e-06
8.3612e-08
3.72953e-06
8.4722e-08
3.70175e-06
8.58168e-08
3.67298e-06
8.67904e-08
3.64333e-06
8.76252e-08
3.61273e-06
8.8326e-08
3.58134e-06
8.87205e-08
3.54916e-06
8.89529e-08
3.51633e-06
8.87625e-08
3.48294e-06
8.8273e-08
3.44908e-06
8.7419e-08
3.41494e-06
8.6086e-08
3.38065e-06
8.42956e-08
3.34645e-06
8.18542e-08
3.3125e-06
7.88027e-08
3.27914e-06
7.50054e-08
3.24658e-06
7.05865e-08
3.21502e-06
6.56686e-08
3.18467e-06
6.04135e-08
3.1556e-06
5.51903e-08
3.12787e-06
5.00561e-08
3.10152e-06
4.51254e-08
3.07654e-06
4.06144e-08
3.05279e-06
3.64154e-08
3.03035e-06
3.25983e-08
3.00903e-06
2.94508e-08
2.98858e-06
2.68586e-08
2.96895e-06
2.48055e-08
2.94987e-06
2.33623e-08
2.93127e-06
2.23518e-08
2.91299e-06
2.1846e-08
2.89485e-06
2.15436e-08
2.87693e-06
2.1203e-08
2.85919e-06
2.10325e-08
2.84156e-06
2.09776e-08
2.82402e-06
2.09315e-08
2.8066e-06
2.09449e-08
2.78929e-06
2.09981e-08
2.77203e-06
2.11087e-08
2.75483e-06
2.1208e-08
2.73766e-06
2.13882e-08
2.72048e-06
2.16206e-08
2.7033e-06
2.18554e-08
2.68611e-06
2.2022e-08
2.669e-06
2.20182e-08
2.65202e-06
2.18532e-08
2.63517e-06
2.16589e-08
2.61847e-06
2.14673e-08
2.60182e-06
2.14601e-08
2.5852e-06
2.15183e-08
2.56861e-06
2.15821e-08
2.55211e-06
2.14965e-08
2.53584e-06
2.11854e-08
2.51984e-06
2.07316e-08
2.5041e-06
2.03373e-08
2.48859e-06
2.00175e-08
2.47318e-06
1.99261e-08
2.45783e-06
1.98985e-08
2.44256e-06
1.98471e-08
2.42746e-06
1.96306e-08
2.41259e-06
1.92515e-08
2.39802e-06
1.87964e-08
2.3837e-06
1.84608e-08
2.36955e-06
1.82279e-08
2.35553e-06
1.81162e-08
2.34171e-06
1.78658e-08
2.32815e-06
1.75042e-08
2.31487e-06
1.70886e-08
2.30187e-06
1.67266e-08
2.28907e-06
1.64386e-08
2.2764e-06
1.63237e-08
2.26397e-06
1.6031e-08
2.25181e-06
1.56418e-08
2.23999e-06
1.51445e-08
2.22846e-06
1.47297e-08
2.21723e-06
1.43386e-08
2.20621e-06
1.41093e-08
2.19542e-06
1.37898e-08
2.1848e-06
1.35794e-08
2.17448e-06
1.31884e-08
2.16462e-06
1.25984e-08
2.15522e-06
1.19026e-08
2.14602e-06
1.15745e-08
2.1369e-06
1.14777e-08
2.12793e-06
1.14524e-08
2.11935e-06
1.10012e-08
2.11127e-06
1.01522e-08
2.10362e-06
9.45163e-09
2.09618e-06
9.33501e-09
2.08898e-06
9.16468e-09
2.08215e-06
8.57561e-09
2.07563e-06
8.04086e-09
2.06926e-06
7.95587e-09
2.06313e-06
7.7188e-09
2.05735e-06
7.21159e-09
2.05189e-06
6.70654e-09
2.04664e-06
6.50914e-09
2.04169e-06
6.13821e-09
2.03702e-06
5.77954e-09
2.03262e-06
5.37203e-09
2.02841e-06
5.19237e-09
2.02445e-06
4.84654e-09
2.0207e-06
4.61943e-09
2.01719e-06
4.25128e-09
2.01386e-06
4.07872e-09
2.01074e-06
3.78102e-09
2.00779e-06
3.60813e-09
2.00507e-06
3.26934e-09
2.00248e-06
3.14049e-09
2.00008e-06
2.87119e-09
1.9978e-06
2.77373e-09
1.99572e-06
2.46241e-09
1.99374e-06
2.40649e-09
1.99195e-06
2.10689e-09
1.99025e-06
2.06746e-09
1.98873e-06
1.75275e-09
1.98728e-06
1.77019e-09
1.98599e-06
1.48213e-09
1.98476e-06
1.49759e-09
1.98369e-06
1.20804e-09
1.98267e-06
1.24741e-09
1.98178e-06
9.86883e-10
1.98092e-06
1.05628e-09
1.98019e-06
8.03142e-10
1.97945e-06
9.15408e-10
1.97884e-06
6.45235e-10
1.97823e-06
7.90488e-10
1.97773e-06
4.92694e-10
1.97723e-06
6.60849e-10
1.97685e-06
3.5612e-10
1.97645e-06
5.29068e-10
1.97617e-06
2.40506e-10
1.97587e-06
4.13418e-10
1.97567e-06
1.37571e-10
1.97545e-06
3.28811e-10
1.97533e-06
3.50904e-11
1.97517e-06
2.81191e-10
1.97512e-06
-5.90816e-11
1.97499e-06
2.5813e-10
1.97501e-06
-1.32142e-10
1.97489e-06
2.47124e-10
1.97496e-06
-1.82007e-10
1.97484e-06
2.60703e-10
1.97494e-06
-2.22156e-10
1.9748e-06
3.19458e-10
1.97494e-06
-2.58993e-10
1.97473e-06
4.27977e-10
1.97489e-06
-2.71953e-10
1.97458e-06
5.81413e-10
1.97474e-06
-2.385e-10
1.97429e-06
8.15528e-10
1.9744e-06
-1.46703e-10
1.97371e-06
1.20151e-09
1.97373e-06
5.40473e-11
1.97266e-06
1.83514e-09
1.97245e-06
5.22347e-10
1.97074e-06
2.90795e-09
1.96998e-06
1.61567e-09
1.96702e-06
4.94026e-09
1.96506e-06
4.33025e-09
1.95885e-06
9.68159e-09
1.95396e-06
1.14696e-08
3.40573e-08
4.49479e-06
1.03673e-08
4.51099e-06
8.77962e-10
4.52113e-06
1.54111e-08
4.51804e-06
4.52426e-08
4.51521e-06
5.75959e-08
4.5141e-06
5.91281e-08
4.51501e-06
5.48283e-08
4.51655e-06
4.98913e-08
4.51768e-06
4.73278e-08
4.51859e-06
4.71119e-08
4.5196e-06
4.84775e-08
4.5206e-06
5.05783e-08
4.5214e-06
5.26474e-08
4.52193e-06
5.44419e-08
4.52228e-06
5.59117e-08
4.5225e-06
5.72506e-08
4.5226e-06
5.85557e-08
4.52259e-06
5.99341e-08
4.52243e-06
6.13742e-08
4.52211e-06
6.28307e-08
4.52159e-06
6.42946e-08
4.52088e-06
6.56779e-08
4.51996e-06
6.70575e-08
4.51886e-06
6.83392e-08
4.51755e-06
6.96617e-08
4.51607e-06
7.09233e-08
4.51437e-06