/*--------------------------------*- C++ -*----------------------------------*\
| =========                 |                                                 |
| \\      /  F ield         | OpenFOAM: The Open Source CFD Toolbox           |
|  \\    /   O peration     | Version:  v2012                                 |
|   \\  /    A nd           | Website:  www.openfoam.com                      |
|    \\/     M anipulation  |                                                 |
\*---------------------------------------------------------------------------*/
FoamFile
{
    version     2.0;
    format      ascii;
    class       volVectorField;
    location    "0.7";
    object      U;
}
// * * * * * * * * * * * * * * * * * * * * * * * * * * * * * * * * * * * * * //

dimensions      [0 1 -1 0 0 0 0];


internalField   nonuniform List<vector> 
8800
(
(0.964787 -0.00126531 0)
(1.03451 0.00108756 0)
(0.968272 -0.00104639 0)
(1.03139 0.000953072 0)
(0.97233 -0.000848669 0)
(1.0287 0.000755227 0)
(0.976112 -0.000727027 0)
(1.02622 0.000643364 0)
(0.979663 -0.000625059 0)
(1.02396 0.000549528 0)
(0.982972 -0.000518925 0)
(1.02195 0.000485059 0)
(0.986043 -0.00038568 0)
(1.02024 0.000413941 0)
(0.989012 -0.000261184 0)
(1.01894 0.000284209 0)
(0.991956 -0.000134276 0)
(1.01821 0.000211839 0)
(0.995239 0.00032032 0)
(1.01921 0.000845656 0)
(0.986798 -0.0011783 0)
(1.01132 0.000855932 0)
(0.989994 -0.000833128 0)
(1.00899 0.00068585 0)
(0.993235 -0.000575966 0)
(1.00731 0.00041021 0)
(0.995803 -0.000394982 0)
(1.00605 0.000264817 0)
(0.997915 -0.000300818 0)
(1.0052 0.000211657 0)
(0.999674 -0.00022691 0)
(1.0047 0.000174902 0)
(1.00117 -8.85405e-05 0)
(1.00454 0.000137479 0)
(1.00256 1.70621e-06 0)
(1.0048 2.06368e-05 0)
(1.00397 0.000229924 0)
(1.00561 0.000389088 0)
(1.00597 0.00103051 0)
(1.00827 0.000880301 0)
(0.997436 -0.0011367 0)
(1.00136 0.000772956 0)
(0.997875 -0.000771317 0)
(1.00072 0.000639224 0)
(0.998836 -0.000561066 0)
(1.00063 0.00037792 0)
(0.999581 -0.000453347 0)
(1.00075 0.000327661 0)
(1.00025 -0.000503805 0)
(1.00104 0.000499861 0)
(1.0009 -0.000576284 0)
(1.00147 0.000614377 0)
(1.00157 -0.000489497 0)
(1.00205 0.000627338 0)
(1.00235 -0.000494494 0)
(1.00288 0.000526924 0)
(1.00341 -0.000363722 0)
(1.00415 0.00170766 0)
(1.00499 0.00188885 0)
(1.00684 0.00498339 0)
(0.999731 -0.00110447 0)
(0.999501 0.000687953 0)
(0.999188 -0.000656732 0)
(0.999363 0.00053572 0)
(0.999476 -0.000424956 0)
(0.999629 0.000209839 0)
(0.999801 -0.000235548 0)
(0.999969 4.62504e-05 0)
(1.00021 -0.000206289 0)
(1.0004 9.05784e-05 0)
(1.00069 -0.000196865 0)
(1.00092 9.95833e-05 0)
(1.00124 -3.41299e-05 0)
(1.00155 0.000177748 0)
(1.00195 1.24185e-05 0)
(1.0024 0.000144728 0)
(1.00314 2.6353e-05 0)
(1.00405 0.000183416 0)
(1.0053 0.000231776 0)
(1.00634 0.00108076 0)
(1.00001 -0.000917605 0)
(0.999327 0.000418819 0)
(0.999326 -0.00039071 0)
(0.999253 0.000276024 0)
(0.999517 -0.000174875 0)
(0.999562 -5.15212e-05 0)
(0.999791 8.63017e-06 0)
(0.999913 -0.00027428 0)
(1.00017 0.000159938 0)
(1.00034 -0.000369887 0)
(1.00062 0.000289791 0)
(1.00088 -0.000405929 0)
(1.00117 0.000454636 0)
(1.0015 -0.000304367 0)
(1.00188 0.000527569 0)
(1.00235 -0.000315667 0)
(1.00291 0.00043594 0)
(1.00364 -0.00110264 0)
(1.00464 -0.000554609 0)
(1.0068 -0.00166957 0)
(1.00005 -0.00103401 0)
(0.999322 0.000525304 0)
(0.999362 -0.000489457 0)
(0.999242 0.000438067 0)
(0.999542 -0.000347908 0)
(0.999548 0.000200835 0)
(0.999819 -0.000363835 0)
(0.999904 0.000150922 0)
(1.00019 -0.000340241 0)
(1.00034 0.000157599 0)
(1.00065 -0.000234569 0)
(1.00088 0.000281965 0)
(1.0012 -0.000108903 0)
(1.0015 0.000358244 0)
(1.00188 -8.01024e-05 0)
(1.00232 0.000319526 0)
(1.00291 -0.000191189 0)
(1.0038 0.00032042 0)
(1.00515 0.000450366 0)
(1.00772 0.00249987 0)
(1.00005 -0.000725802 0)
(0.999356 0.000104691 0)
(0.999375 -3.82227e-05 0)
(0.999261 -1.92283e-05 0)
(0.99955 0.000106448 0)
(0.999559 -0.000191756 0)
(0.999837 2.60054e-06 0)
(0.999913 -0.000208853 0)
(1.00021 -3.55868e-05 0)
(1.00035 -0.000239359 0)
(1.00068 9.66392e-05 0)
(1.0009 -5.44721e-05 0)
(1.00122 0.000225076 0)
(1.0015 3.93857e-05 0)
(1.00191 0.000240562 0)
(1.00232 0.000107299 0)
(1.00295 0.000222985 0)
(1.00379 0.000235845 0)
(1.00524 0.000366944 0)
(1.00792 0.00109658 0)
(1.00005 -0.000865258 0)
(0.999398 0.000215556 0)
(0.999393 -0.000272009 0)
(0.999284 0.000321937 0)
(0.999568 -0.000271911 0)
(0.999567 0.000284273 0)
(0.99986 -0.000404653 0)
(0.999927 0.000159865 0)
(1.00023 -0.000251534 0)
(1.00038 -4.26643e-06 0)
(1.00072 -0.000107903 0)
(1.00093 0.000208426 0)
(1.00125 3.59472e-05 0)
(1.00153 0.000253942 0)
(1.00193 0.00012007 0)
(1.00235 0.000292553 0)
(1.00298 0.000206757 0)
(1.00387 0.000458183 0)
(1.00545 0.000768331 0)
(1.00832 0.00167844 0)
(1.00005 -0.000614184 0)
(0.999434 -0.000107792 0)
(0.999431 -3.51248e-05 0)
(0.999295 9.97464e-05 0)
(0.999596 9.7385e-06 0)
(0.999577 3.81299e-05 0)
(0.999874 -0.000176354 0)
(0.999963 -8.82281e-05 0)
(1.00024 -0.000117866 0)
(1.00041 -3.26421e-05 0)
(1.00076 4.09468e-06 0)
(1.00096 0.000126546 0)
(1.00128 0.000125685 0)
(1.00156 0.000235088 0)
(1.00196 0.000201416 0)
(1.00238 0.000327272 0)
(1.00304 0.0003493 0)
(1.00399 0.000647999 0)
(1.00566 0.00101579 0)
(1.00868 0.00181349 0)
(1.00005 -0.000652368 0)
(0.999492 -0.000105638 0)
(0.999462 -7.54523e-05 0)
(0.999336 0.000110874 0)
(0.999613 0.000163258 0)
(0.999593 -0.000164987 0)
(0.999897 6.49319e-05 0)
(0.99998 -0.000213871 0)
(1.00029 -0.000181425 0)
(1.00045 9.09523e-05 0)
(1.0008 1.83185e-05 0)
(1.001 0.000135988 0)
(1.00132 0.000153696 0)
(1.00159 0.000267277 0)
(1.002 0.000262835 0)
(1.00243 0.000387539 0)
(1.00312 0.000478857 0)
(1.00413 0.000774803 0)
(1.00589 0.00117174 0)
(1.009 0.00184376 0)
(1.00005 -0.000525365 0)
(0.999538 -0.000248051 0)
(0.99951 -0.000133928 0)
(0.999375 0.00024699 0)
(0.99962 6.4392e-07 0)
(0.999625 5.4903e-05 0)
(0.999922 -5.39056e-06 0)
(0.999986 -0.000133422 0)
(1.00035 -0.000151829 0)
(1.0005 6.62153e-05 0)
(1.00083 6.39396e-05 0)
(1.00104 0.000158609 0)
(1.00136 0.000180229 0)
(1.00164 0.000286635 0)
(1.00205 0.000309088 0)
(1.0025 0.000444193 0)
(1.00322 0.000575727 0)
(1.00427 0.000872256 0)
(1.0061 0.00126185 0)
(1.0093 0.00184227 0)
(1.00005 -0.000465328 0)
(0.999591 -0.000357073 0)
(0.999576 -0.000114225 0)
(0.999411 0.000210023 0)
(0.999656 5.25126e-05 0)
(0.999655 0.000206515 0)
(0.999932 -0.000183092 0)
(1.00002 -2.9233e-05 0)
(1.00039 -7.97351e-05 0)
(1.00055 1.89054e-05 0)
(1.00088 8.78102e-05 0)
(1.00108 0.000205175 0)
(1.00141 0.000229374 0)
(1.00169 0.000327054 0)
(1.00211 0.000370978 0)
(1.00258 0.000518148 0)
(1.00333 0.000671703 0)
(1.00443 0.000965019 0)
(1.00632 0.00132787 0)
(1.00958 0.00184038 0)
(1.00005 -0.000395038 0)
(0.999647 -0.000408794 0)
(0.999645 -0.000123866 0)
(0.999466 8.31074e-05 0)
(0.999694 0.000241751 0)
(0.99966 0.000126579 0)
(0.999962 -0.000100137 0)
(1.00007 4.42339e-05 0)
(1.00043 -1.70191e-05 0)
(1.0006 1.9386e-05 0)
(1.00094 7.88069e-05 0)
(1.00114 0.0002107 0)
(1.00147 0.000259434 0)
(1.00174 0.000353046 0)
(1.00218 0.000418911 0)
(1.00266 0.000570233 0)
(1.00345 0.000741878 0)
(1.0046 0.00102039 0)
(1.00654 0.00135804 0)
(1.00985 0.00180324 0)
(1.00005 -0.00035237 0)
(0.999699 -0.000374541 0)
(0.999709 -0.000224063 0)
(0.999534 5.40124e-05 0)
(0.999736 0.000212145 0)
(0.999679 0.000193187 0)
(0.999996 5.45539e-05 0)
(1.00011 1.33209e-05 0)
(1.00046 2.03987e-05 0)
(1.00064 7.47579e-05 0)
(1.00099 0.000106941 0)
(1.0012 0.000206965 0)
(1.00152 0.000281222 0)
(1.00181 0.000376011 0)
(1.00225 0.000465456 0)
(1.00276 0.000616038 0)
(1.00357 0.00080201 0)
(1.00476 0.00106153 0)
(1.00675 0.0013761 0)
(1.0101 0.00175832 0)
(1.00005 -0.00029975 0)
(0.999739 -0.000338323 0)
(0.999774 -0.000294594 0)
(0.9996 1.93271e-05 0)
(0.999788 0.000126848 0)
(0.999708 0.000279937 0)
(1 0.000168893 0)
(1.00014 2.28638e-05 0)
(1.00051 3.5691e-05 0)
(1.00069 0.00013685 0)
(1.00104 0.000167641 0)
(1.00126 0.000239949 0)
(1.00159 0.000306756 0)
(1.00187 0.000412975 0)
(1.00233 0.000506885 0)
(1.00286 0.000663118 0)
(1.0037 0.000842438 0)
(1.00492 0.00109084 0)
(1.00695 0.00137076 0)
(1.01033 0.00171105 0)
(1.00005 -0.000257201 0)
(0.999772 -0.000320771 0)
(0.999831 -0.000288626 0)
(0.999666 -5.7719e-05 0)
(0.999849 8.78136e-05 0)
(0.999755 0.000251077 0)
(1.00002 0.000310713 0)
(1.00015 0.000162804 0)
(1.00055 6.15632e-05 0)
(1.00074 0.000134755 0)
(1.00109 0.000201521 0)
(1.00131 0.000271864 0)
(1.00165 0.000336006 0)
(1.00194 0.000438259 0)
(1.00241 0.000539238 0)
(1.00297 0.000690517 0)
(1.00383 0.000866126 0)
(1.00508 0.00109578 0)
(1.00714 0.00134874 0)
(1.01056 0.00164772 0)
(1.00005 -0.00020002 0)
(0.999805 -0.000327706 0)
(0.999884 -0.000244854 0)
(0.999728 -0.000120549 0)
(0.99991 2.90429e-05 0)
(0.999818 0.000172843 0)
(1.00005 0.000351289 0)
(1.00015 0.00033163 0)
(1.00057 0.000164357 0)
(1.00079 0.000149662 0)
(1.00115 0.00020795 0)
(1.00137 0.000295802 0)
(1.00171 0.000368359 0)
(1.00202 0.000469054 0)
(1.0025 0.000572552 0)
(1.00307 0.000715511 0)
(1.00396 0.000881549 0)
(1.00524 0.00108997 0)
(1.00732 0.00131522 0)
(1.01077 0.00157357 0)
(1.00005 -0.000165842 0)
(0.999837 -0.000293805 0)
(0.999933 -0.00022576 0)
(0.999782 -0.000139362 0)
(0.999972 -6.95288e-06 0)
(0.999889 0.000127328 0)
(1.00012 0.000292755 0)
(1.00017 0.000433387 0)
(1.00057 0.000345494 0)
(1.00082 0.000243299 0)
(1.0012 0.000230601 0)
(1.00143 0.000300083 0)
(1.00178 0.000380797 0)
(1.00209 0.000484725 0)
(1.00259 0.00058911 0)
(1.00318 0.000726263 0)
(1.00409 0.000879804 0)
(1.00539 0.001069 0)
(1.0075 0.00126702 0)
(1.01097 0.00148962 0)
(1.00005 -0.000140155 0)
(0.999863 -0.000223448 0)
(0.999975 -0.000224279 0)
(0.999833 -0.000125172 0)
(1.00003 -1.4442e-05 0)
(0.999946 0.000111154 0)
(1.00019 0.000216482 0)
(1.00023 0.000404414 0)
(1.00058 0.000457182 0)
(1.00082 0.000380123 0)
(1.00123 0.000302696 0)
(1.00148 0.000318964 0)
(1.00184 0.000385916 0)
(1.00217 0.000487106 0)
(1.00267 0.000592596 0)
(1.00328 0.000720641 0)
(1.00421 0.000861499 0)
(1.00553 0.00102755 0)
(1.00766 0.00120025 0)
(1.01115 0.00138792 0)
(1.00005 -0.000112691 0)
(0.999879 -0.000170582 0)
(1.00001 -0.000198249 0)
(0.999878 -0.000107855 0)
(1.00008 -1.25769e-05 0)
(0.999997 0.00011322 0)
(1.00025 0.000212284 0)
(1.00029 0.000353442 0)
(1.00062 0.000469434 0)
(1.00082 0.000477327 0)
(1.00123 0.000405178 0)
(1.00151 0.000373584 0)
(1.0019 0.000400791 0)
(1.00224 0.000484314 0)
(1.00276 0.000581694 0)
(1.00338 0.00070075 0)
(1.00432 0.000826726 0)
(1.00566 0.00097197 0)
(1.00781 0.00111941 0)
(1.01131 0.00127753 0)
(1.00005 -7.8479e-05 0)
(0.999894 -0.000146642 0)
(1.00003 -0.000140892 0)
(0.999919 -8.55042e-05 0)
(1.00012 4.88108e-06 0)
(1.00005 0.000127978 0)
(1.0003 0.000241583 0)
(1.00035 0.000335808 0)
(1.00066 0.000433735 0)
(1.00084 0.000496096 0)
(1.00123 0.000480044 0)
(1.00152 0.0004445 0)
(1.00194 0.000438393 0)
(1.0023 0.000488525 0)
(1.00283 0.000565881 0)
(1.00347 0.000667007 0)
(1.00443 0.000775831 0)
(1.00578 0.000897671 0)
(1.00794 0.00102102 0)
(1.01145 0.00114958 0)
(1.00005 -5.77967e-05 0)
(0.999907 -0.000100255 0)
(1.00006 -8.94435e-05 0)
(0.999951 -4.55185e-05 0)
(1.00017 2.25608e-05 0)
(1.0001 0.000148082 0)
(1.00035 0.000260405 0)
(1.00039 0.000351911 0)
(1.00071 0.000414331 0)
(1.00087 0.000483971 0)
(1.00125 0.000503937 0)
(1.00153 0.000494039 0)
(1.00196 0.000475805 0)
(1.00234 0.000496907 0)
(1.0029 0.000545468 0)
(1.00355 0.000623534 0)
(1.00452 0.000709835 0)
(1.00588 0.000809695 0)
(1.00805 0.00090836 0)
(1.01157 0.00101225 0)
(1.00005 -3.83426e-05 0)
(0.999918 -5.38557e-05 0)
(1.00008 -3.97668e-05 0)
(0.999976 5.40807e-06 0)
(1.00021 6.73591e-05 0)
(1.00015 0.00016739 0)
(1.00039 0.000278684 0)
(1.00043 0.00036547 0)
(1.00074 0.00042367 0)
(1.0009 0.000472357 0)
(1.00126 0.000503207 0)
(1.00154 0.000511005 0)
(1.00197 0.000499221 0)
(1.00237 0.000502801 0)
(1.00294 0.000525117 0)
(1.00361 0.000574911 0)
(1.00459 0.000635314 0)
(1.00597 0.00070877 0)
(1.00814 0.000782079 0)
(1.01167 0.000860341 0)
(1.00005 -1.64027e-05 0)
(0.999926 -1.81302e-05 0)
(1.00009 8.65709e-06 0)
(0.999997 6.51498e-05 0)
(1.00024 0.000125943 0)
(1.00018 0.000204557 0)
(1.00043 0.000297036 0)
(1.00046 0.000385147 0)
(1.00077 0.000438866 0)
(1.00092 0.00047912 0)
(1.00128 0.000498533 0)
(1.00154 0.000508629 0)
(1.00197 0.000497565 0)
(1.00237 0.000490763 0)
(1.00296 0.000490721 0)
(1.00364 0.000511874 0)
(1.00464 0.000544221 0)
(1.00603 0.000589716 0)
(1.00821 0.000637614 0)
(1.01175 0.000690702 0)
(1.00005 7.77868e-07 0)
(0.999933 2.15452e-05 0)
(1.00011 6.11756e-05 0)
(1.00002 0.000123975 0)
(1.00026 0.000189659 0)
(1.00021 0.000253413 0)
(1.00047 0.000327205 0)
(1.00049 0.000403656 0)
(1.00079 0.000457252 0)
(1.00094 0.000489185 0)
(1.00128 0.000501285 0)
(1.00154 0.000501157 0)
(1.00196 0.000486503 0)
(1.00237 0.000466897 0)
(1.00296 0.000446784 0)
(1.00365 0.000437089 0)
(1.00467 0.000437817 0)
(1.00606 0.000451985 0)
(1.00825 0.000472847 0)
(1.01179 0.000500413 0)
(1.00005 1.68449e-05 0)
(0.999936 6.76475e-05 0)
(1.00012 0.000117249 0)
(1.00003 0.000182305 0)
(1.00027 0.000247898 0)
(1.00023 0.000309689 0)
(1.00049 0.000370363 0)
(1.00051 0.000436933 0)
(1.0008 0.000483832 0)
(1.00094 0.00050886 0)
(1.00128 0.000508896 0)
(1.00152 0.000497076 0)
(1.00194 0.000471847 0)
(1.00234 0.000439475 0)
(1.00293 0.000397686 0)
(1.00363 0.000352887 0)
(1.00465 0.000306594 0)
(1.00605 0.000266255 0)
(1.00826 0.000232489 0)
(1.01181 0.00020939 0)
(1.00005 3.45882e-05 0)
(0.999939 0.000106295 0)
(1.00012 0.000175772 0)
(1.00004 0.000242649 0)
(1.00028 0.000310058 0)
(1.00024 0.000367115 0)
(1.0005 0.000426482 0)
(1.00052 0.000482263 0)
(1.0008 0.000524425 0)
(1.00093 0.000537299 0)
(1.00125 0.000524393 0)
(1.00149 0.000491606 0)
(1.00189 0.000451075 0)
(1.00228 0.000409166 0)
(1.00286 0.000370337 0)
(1.00354 0.000332607 0)
(1.00455 0.000294952 0)
(1.00595 0.000254458 0)
(1.00815 0.000212476 0)
(1.01172 0.000171206 0)
(1.00005 5.27712e-05 0)
(0.999939 0.00014428 0)
(1.00012 0.000235425 0)
(1.00004 0.000310001 0)
(1.00028 0.000375473 0)
(1.00024 0.000427793 0)
(1.0005 0.000486111 0)
(1.00052 0.000535363 0)
(1.00079 0.000574362 0)
(1.0009 0.000584785 0)
(1.00121 0.000564924 0)
(1.00143 0.00050595 0)
(1.00183 0.00041681 0)
(1.00223 0.000300298 0)
(1.00282 0.000170714 0)
(1.00351 3.40059e-05 0)
(1.00453 -9.57494e-05 0)
(1.00592 -0.000214394 0)
(1.00811 -0.000317437 0)
(1.01166 -0.000409452 0)
(1.00005 6.84566e-05 0)
(0.999939 0.000183006 0)
(1.00012 0.000293887 0)
(1.00003 0.000382517 0)
(1.00027 0.000452964 0)
(1.00023 0.000509661 0)
(1.00049 0.000559514 0)
(1.00051 0.000594343 0)
(1.00077 0.000614291 0)
(1.00086 0.000620718 0)
(1.00114 0.000618178 0)
(1.00131 0.00060349 0)
(1.00165 0.000574211 0)
(1.00199 0.00052184 0)
(1.00252 0.000444277 0)
(1.00318 0.000339405 0)
(1.00418 0.000211768 0)
(1.00559 6.66397e-05 0)
(1.00781 -8.02728e-05 0)
(1.01139 -0.000222241 0)
(1.00005 8.99267e-05 0)
(0.999936 0.000209426 0)
(1.00012 0.000343475 0)
(1.00003 0.000424716 0)
(1.00026 0.000535075 0)
(1.00021 0.000615824 0)
(1.00046 0.000699454 0)
(1.00047 0.000721574 0)
(1.00073 0.000719379 0)
(1.00082 0.000652564 0)
(1.00111 0.000562826 0)
(1.00132 0.000421386 0)
(1.00168 0.000263051 0)
(1.00203 6.22252e-05 0)
(1.00255 -0.000149271 0)
(1.00317 -0.000387974 0)
(1.0041 -0.000622491 0)
(1.00544 -0.000863831 0)
(1.00759 -0.00108393 0)
(1.01113 -0.00128111 0)
(1.00005 0.000124424 0)
(0.999929 0.000261208 0)
(1.0001 0.000419351 0)
(1.00002 0.000457119 0)
(1.00026 0.000574643 0)
(1.00022 0.000623978 0)
(1.00045 0.000738485 0)
(1.00042 0.000795862 0)
(1.00061 0.000912769 0)
(1.00063 0.000977332 0)
(1.00082 0.00106939 0)
(1.00092 0.00108491 0)
(1.00117 0.00108825 0)
(1.00141 0.000997334 0)
(1.00186 0.000870963 0)
(1.00244 0.000644531 0)
(1.00339 0.000369732 0)
(1.00477 -4.05075e-06 0)
(1.00701 -0.000431783 0)
(1.01068 -0.000942195 0)
(1.00005 0.000117224 0)
(0.999909 0.000253468 0)
(1.00005 0.000508132 0)
(0.999953 0.000634548 0)
(1.0002 0.000832545 0)
(1.00016 0.000851476 0)
(1.00043 0.00087651 0)
(1.00045 0.000777331 0)
(1.00073 0.000716704 0)
(1.00082 0.000563793 0)
(1.00109 0.000443409 0)
(1.00122 0.000237045 0)
(1.00147 5.16977e-05 0)
(1.00166 -0.000209431 0)
(1.00199 -0.000451705 0)
(1.00236 -0.000756504 0)
(1.00299 -0.00104051 0)
(1.00397 -0.00136528 0)
(1.00575 -0.0016385 0)
(1.00895 -0.00190071 0)
(1.00004 0.000250275 0)
(0.99996 6.31683e-05 0)
(1.00014 0.000576983 0)
(1.00005 0.00044927 0)
(1.00024 0.000856637 0)
(1.0001 0.000739835 0)
(1.00024 0.00115242 0)
(1.00014 0.00117483 0)
(1.00027 0.00166827 0)
(1.00021 0.00180061 0)
(1.00032 0.00225728 0)
(1.00031 0.00230087 0)
(1.00046 0.00251931 0)
(1.00059 0.00235999 0)
(1.00092 0.00237762 0)
(1.00139 0.00209212 0)
(1.00225 0.00189059 0)
(1.0036 0.00121585 0)
(1.0059 0.000182466 0)
(1.00982 -0.00197941 0)
(1.00004 0.000147961 0)
(0.999947 0.00043419 0)
(1.0001 0.00070796 0)
(0.999989 0.000881222 0)
(1.00023 0.00095172 0)
(1.00025 0.000896744 0)
(1.00063 0.000790237 0)
(1.0008 0.000606137 0)
(1.00119 0.000423712 0)
(1.00134 0.000214218 0)
(1.00153 2.10979e-05 0)
(1.00147 -0.000194699 0)
(1.00147 -0.000400855 0)
(1.00141 -0.000620382 0)
(1.00149 -0.000818354 0)
(1.00148 -0.00101187 0)
(1.00127 -0.00117674 0)
(1.00043 -0.00132925 0)
(0.998581 -0.00145859 0)
(0.994744 -0.0016062 0)
(1.00004 0.000154984 0)
(0.999975 0.000314631 0)
(1.00012 0.000542765 0)
(0.999929 0.000696248 0)
(0.999968 0.000954389 0)
(0.999683 0.001158 0)
(0.999689 0.0013895 0)
(0.999481 0.00150442 0)
(0.999532 0.0015424 0)
(0.999417 0.00139616 0)
(0.999471 0.00117348 0)
(0.999414 0.000867736 0)
(0.999514 0.00059475 0)
(0.999621 0.000279327 0)
(0.99996 -5.53756e-05 0)
(1.00048 -0.000502562 0)
(1.00145 -0.00102404 0)
(1.003 -0.00165367 0)
(1.00559 -0.00229501 0)
(1.00985 -0.00291562 0)
(1.00004 0.000178128 0)
(0.999918 0.00047943 0)
(1.00009 0.00074002 0)
(1.00003 0.000846337 0)
(1.00035 0.000915804 0)
(1.00041 0.000886687 0)
(1.00076 0.000832665 0)
(1.0008 0.000708427 0)
(1.00094 0.000593287 0)
(1.0008 0.000448508 0)
(1.00077 0.000315314 0)
(1.00058 0.000144351 0)
(1.00048 -3.12093e-05 0)
(1.00024 -0.000246245 0)
(0.999958 -0.000465763 0)
(0.999414 -0.000712823 0)
(0.998554 -0.000955264 0)
(0.997041 -0.00122186 0)
(0.994588 -0.00151033 0)
(0.99043 -0.0018701 0)
(1.00004 0.000130365 0)
(0.999946 0.000420208 0)
(0.999982 0.000673437 0)
(0.999667 0.000942981 0)
(0.999582 0.00115859 0)
(0.999167 0.00131034 0)
(0.999044 0.00133793 0)
(0.998742 0.00125803 0)
(0.998739 0.00108442 0)
(0.998581 0.000871868 0)
(0.998573 0.000614391 0)
(0.99843 0.000321344 0)
(0.998426 -3.08125e-05 0)
(0.99843 -0.00043168 0)
(0.998687 -0.000890151 0)
(0.999169 -0.00138252 0)
(1.00015 -0.00189792 0)
(1.00173 -0.00238803 0)
(1.00434 -0.00282178 0)
(1.00855 -0.00313995 0)
(1.00004 0.000156225 0)
(0.999939 0.000333974 0)
(1.00015 0.000573474 0)
(1.00012 0.000710153 0)
(1.0004 0.000924004 0)
(1.00035 0.00107879 0)
(1.00051 0.00128548 0)
(1.00034 0.00138589 0)
(1.00031 0.00145516 0)
(1.00002 0.00140302 0)
(0.999808 0.00135089 0)
(0.999394 0.0012136 0)
(0.999006 0.00105753 0)
(0.998424 0.000789531 0)
(0.997771 0.000469887 0)
(0.996841 3.75437e-05 0)
(0.995641 -0.000448405 0)
(0.99388 -0.00104471 0)
(0.991306 -0.00170507 0)
(0.987176 -0.00247655 0)
(1.00004 0.000125478 0)
(0.999921 0.000398636 0)
(0.999934 0.000654842 0)
(0.999611 0.000896908 0)
(0.999539 0.00110364 0)
(0.999127 0.00127964 0)
(0.998948 0.00141342 0)
(0.9985 0.00150419 0)
(0.998304 0.00153142 0)
(0.997986 0.00149047 0)
(0.997838 0.00136282 0)
(0.99751 0.00114255 0)
(0.997233 0.000815016 0)
(0.996873 0.000381274 0)
(0.996713 -0.000159322 0)
(0.996748 -0.000787967 0)
(0.997249 -0.00147799 0)
(0.998336 -0.00218425 0)
(1.00048 -0.00285506 0)
(1.00433 -0.00342708 0)
(1.00004 0.000136915 0)
(0.999982 -0.000154418 0)
(1.00022 0.000157856 0)
(1.00022 0.000154166 0)
(1.00051 0.00073875 0)
(1.00045 0.00106062 0)
(1.00057 0.0018478 0)
(1.0003 0.00234744 0)
(1.00011 0.00314201 0)
(0.999577 0.00356539 0)
(0.999031 0.00410534 0)
(0.998181 0.00424361 0)
(0.997257 0.0044364 0)
(0.996043 0.00425239 0)
(0.994686 0.0040523 0)
(0.993031 0.00342859 0)
(0.991163 0.00265368 0)
(0.988877 0.00134558 0)
(0.985998 -0.000329148 0)
(0.981848 -0.00283105 0)
(1.00428 0.0020244 0)
(0.991848 0.0027365 0)
(0.977398 0.00314623 0)
(0.962931 0.00342639 0)
(0.948956 0.00358677 0)
(0.935502 0.00358228 0)
(0.922524 0.00343192 0)
(0.909966 0.00322403 0)
(0.897796 0.00304654 0)
(0.885929 0.00294482 0)
(0.874239 0.00290297 0)
(0.862558 0.00288908 0)
(0.850756 0.00287911 0)
(0.838738 0.00286452 0)
(0.82646 0.00284454 0)
(0.813919 0.0028245 0)
(0.801124 0.00280645 0)
(0.78812 0.00279225 0)
(0.774926 0.00277942 0)
(0.761595 0.00276709 0)
(0.748125 0.00275229 0)
(0.734569 0.0027354 0)
(0.7209 0.00271513 0)
(0.70717 0.00269304 0)
(0.693331 0.00266903 0)
(0.679439 0.002644 0)
(0.665437 0.00261896 0)
(0.651378 0.00259255 0)
(0.637208 0.002568 0)
(0.622972 0.00254024 0)
(0.608634 0.00251624 0)
(0.594216 0.00248656 0)
(0.579721 0.00246246 0)
(0.565123 0.00243142 0)
(0.550481 0.00240575 0)
(0.535714 0.00237485 0)
(0.520942 0.00234428 0)
(0.506036 0.00231473 0)
(0.491154 0.00227567 0)
(0.476167 0.00224533 0)
(0.461209 0.00219558 0)
(0.446239 0.0021543 0)
(0.431288 0.00209533 0)
(0.416463 0.00203026 0)
(0.401693 0.00196381 0)
(0.387167 0.00187602 0)
(0.372827 0.00179501 0)
(0.358817 0.00170155 0)
(0.345173 0.00159461 0)
(0.331976 0.00146486 0)
(0.319352 0.00130823 0)
(0.307376 0.00112092 0)
(0.296213 0.000909092 0)
(0.285922 0.000696696 0)
(0.27662 0.000486508 0)
(0.268377 0.000291336 0)
(0.261156 0.00012601 0)
(0.254931 -2.41117e-05 0)
(0.249708 -0.000147955 0)
(0.245281 -0.000241228 0)
(0.241669 -0.000330031 0)
(0.238802 -0.000384466 0)
(0.236422 -0.000413989 0)
(0.234574 -0.000434771 0)
(0.233089 -0.000431585 0)
(0.231857 -0.000417818 0)
(0.230856 -0.000395142 0)
(0.229893 -0.000363974 0)
(0.228986 -0.000342552 0)
(0.228146 -0.000319895 0)
(0.227298 -0.000288926 0)
(0.226427 -0.000262461 0)
(0.225569 -0.000240757 0)
(0.224678 -0.000217808 0)
(0.223752 -0.000196103 0)
(0.222774 -0.00017626 0)
(0.221766 -0.000157678 0)
(0.2207 -0.000138231 0)
(0.219589 -0.00011849 0)
(0.218406 -0.000101979 0)
(0.217184 -9.0174e-05 0)
(0.215922 -8.31751e-05 0)
(0.214668 -7.93021e-05 0)
(0.213412 -7.39445e-05 0)
(0.212183 -6.71102e-05 0)
(0.210939 -5.74375e-05 0)
(0.209694 -4.73853e-05 0)
(0.208409 -3.99934e-05 0)
(0.207128 -3.62232e-05 0)
(0.205842 -3.53212e-05 0)
(0.204608 -3.58435e-05 0)
(0.203394 -3.38937e-05 0)
(0.202231 -2.99528e-05 0)
(0.201055 -2.41476e-05 0)
(0.199897 -1.88093e-05 0)
(0.198705 -1.55835e-05 0)
(0.197545 -1.54912e-05 0)
(0.196383 -1.54666e-05 0)
(0.195286 -1.38429e-05 0)
(0.194192 -1.0935e-05 0)
(0.193147 -8.22034e-06 0)
(0.192075 -5.44894e-06 0)
(0.191043 -4.73347e-06 0)
(0.189995 -4.12136e-06 0)
(0.189013 -2.46342e-06 0)
(0.188023 -5.92082e-07 0)
(0.187092 3.09321e-07 0)
(0.186128 2.02425e-06 0)
(0.185217 2.30181e-06 0)
(0.18428 2.75702e-06 0)
(0.183426 3.24034e-06 0)
(0.182558 4.64055e-06 0)
(0.181772 5.39273e-06 0)
(0.180945 6.25637e-06 0)
(0.18019 5.18167e-06 0)
(0.179388 5.62317e-06 0)
(0.17867 6.86659e-06 0)
(0.177913 7.84537e-06 0)
(0.177274 5.67596e-06 0)
(0.176606 4.03068e-06 0)
(0.176033 5.11863e-06 0)
(0.175367 8.44741e-06 0)
(0.17478 9.31483e-06 0)
(0.17416 6.70151e-06 0)
(0.173701 5.64424e-06 0)
(0.173176 8.19695e-06 0)
(0.172729 9.2915e-06 0)
(0.172204 6.58208e-06 0)
(0.17183 5.28278e-06 0)
(0.171376 7.53654e-06 0)
(0.171022 8.39475e-06 0)
(0.170579 6.9723e-06 0)
(0.17029 6.07607e-06 0)
(0.169906 7.42024e-06 0)
(0.169654 7.0925e-06 0)
(0.169294 6.58209e-06 0)
(0.169094 5.70533e-06 0)
(0.168769 6.50584e-06 0)
(0.168604 5.86499e-06 0)
(0.168299 5.9553e-06 0)
(0.168174 4.96552e-06 0)
(0.167894 5.37116e-06 0)
(0.167804 4.67984e-06 0)
(0.167538 4.82639e-06 0)
(0.167484 3.79789e-06 0)
(0.167236 4.2696e-06 0)
(0.167216 3.64067e-06 0)
(0.166975 4.11136e-06 0)
(0.166985 3.07187e-06 0)
(0.166752 3.71595e-06 0)
(0.166793 2.52224e-06 0)
(0.16656 3.08871e-06 0)
(0.166635 1.7227e-06 0)
(0.166401 2.72905e-06 0)
(0.166509 1.54413e-06 0)
(0.166266 2.47588e-06 0)
(0.166408 1.21593e-06 0)
(0.166155 2.11103e-06 0)
(0.166332 8.44616e-07 0)
(0.166062 1.72033e-06 0)
(0.166274 3.28107e-07 0)
(0.16598 1.46166e-06 0)
(0.16623 -1.13043e-07 0)
(0.165907 1.33234e-06 0)
(0.166201 -4.11795e-07 0)
(0.165842 1.25646e-06 0)
(0.166188 -6.35828e-07 0)
(0.165786 1.1464e-06 0)
(0.16619 -8.18572e-07 0)
(0.165737 1.06732e-06 0)
(0.166205 -1.05321e-06 0)
(0.16569 1.13255e-06 0)
(0.166232 -1.28295e-06 0)
(0.165642 1.27993e-06 0)
(0.16627 -1.40475e-06 0)
(0.165592 1.40376e-06 0)
(0.166314 -1.41431e-06 0)
(0.165538 1.47196e-06 0)
(0.166364 -1.35623e-06 0)
(0.165477 1.62335e-06 0)
(0.166415 -1.39675e-06 0)
(0.165406 1.89012e-06 0)
(0.166465 -1.47417e-06 0)
(0.16532 2.24697e-06 0)
(0.166507 -1.40381e-06 0)
(0.165215 2.6802e-06 0)
(0.166534 -1.19021e-06 0)
(0.165081 3.42535e-06 0)
(0.16653 -9.05621e-07 0)
(0.164899 4.69327e-06 0)
(0.166471 -1.2601e-07 0)
(0.164637 6.88018e-06 0)
(0.166308 1.6126e-06 0)
(0.164224 1.07648e-05 0)
(0.165948 5.81272e-06 0)
(0.16348 1.69984e-05 0)
(0.165236 2.07179e-05 0)
(0.161816 1.92763e-05 0)
(0.164015 7.75091e-05 0)
(0.15726 0.000137198 0)
(1.01012 0.00168194 0)
(1.00908 0.0026952 0)
(1.00598 0.0038735 0)
(1.00289 0.00506474 0)
(1.00023 0.00586321 0)
(0.998038 0.00612646 0)
(0.996313 0.00593086 0)
(0.995004 0.00552574 0)
(0.994066 0.00517226 0)
(0.993357 0.00499688 0)
(0.99275 0.0049729 0)
(0.992071 0.00501977 0)
(0.991234 0.00507585 0)
(0.990144 0.00511659 0)
(0.988781 0.005141 0)
(0.987135 0.00515872 0)
(0.985213 0.00517728 0)
(0.983055 0.00520072 0)
(0.980659 0.00522726 0)
(0.978084 0.00525434 0)
(0.975306 0.00527838 0)
(0.972382 0.00529818 0)
(0.969272 0.0053132 0)
(0.966021 0.00532441 0)
(0.962589 0.00533317 0)
(0.958998 0.00534031 0)
(0.955231 0.00534752 0)
(0.951276 0.00535429 0)
(0.94715 0.00536222 0)
(0.942801 0.00536936 0)
(0.938289 0.00537737 0)
(0.933528 0.00538393 0)
(0.928603 0.00539061 0)
(0.923416 0.00539609 0)
(0.918052 0.00540024 0)
(0.912429 0.00540413 0)
(0.906603 0.00540405 0)
(0.900538 0.00540472 0)
(0.894236 0.00539883 0)
(0.887724 0.00539275 0)
(0.880948 0.00537876 0)
(0.873989 0.00535843 0)
(0.866764 0.00533121 0)
(0.859371 0.00528754 0)
(0.851759 0.00523803 0)
(0.843972 0.0051666 0)
(0.836055 0.0050838 0)
(0.827975 0.00498274 0)
(0.819845 0.00485692 0)
(0.811621 0.00470488 0)
(0.803423 0.00452011 0)
(0.79526 0.00430152 0)
(0.787209 0.00404411 0)
(0.779343 0.00375799 0)
(0.771678 0.00344879 0)
(0.76432 0.00312747 0)
(0.757245 0.00281042 0)
(0.750492 0.00250511 0)
(0.744084 0.00221345 0)
(0.737971 0.0019492 0)
(0.732186 0.00170575 0)
(0.726687 0.00148341 0)
(0.721459 0.00129823 0)
(0.71644 0.00114149 0)
(0.711646 0.0010131 0)
(0.706997 0.000918191 0)
(0.7025 0.000843485 0)
(0.698077 0.000792776 0)
(0.693717 0.000750429 0)
(0.689408 0.000709611 0)
(0.685161 0.000677774 0)
(0.680912 0.000654074 0)
(0.676725 0.000633999 0)
(0.672538 0.000618884 0)
(0.668407 0.000607711 0)
(0.664257 0.000599771 0)
(0.66016 0.000592597 0)
(0.65604 0.000588286 0)
(0.651951 0.000586619 0)
(0.647836 0.000586458 0)
(0.643748 0.000583996 0)
(0.639637 0.000576497 0)
(0.635593 0.000562416 0)
(0.631524 0.000546365 0)
(0.627544 0.000530845 0)
(0.623529 0.000521404 0)
(0.619579 0.000515287 0)
(0.615588 0.000510688 0)
(0.611666 0.000500875 0)
(0.60772 0.000484679 0)
(0.603902 0.000464658 0)
(0.600071 0.000446474 0)
(0.596374 0.000431546 0)
(0.592642 0.000424194 0)
(0.589009 0.000418026 0)
(0.585307 0.000412173 0)
(0.58173 0.000401555 0)
(0.578102 0.000384674 0)
(0.574627 0.000366832 0)
(0.571132 0.000354003 0)
(0.567782 0.000343836 0)
(0.564356 0.000338395 0)
(0.561094 0.000329411 0)
(0.557765 0.000316043 0)
(0.554614 0.00030171 0)
(0.551416 0.000290442 0)
(0.548401 0.00028159 0)
(0.545285 0.000277537 0)
(0.542363 0.000268141 0)
(0.539347 0.000255972 0)
(0.536565 0.00024116 0)
(0.53369 0.000229264 0)
(0.531059 0.000219119 0)
(0.528304 0.000214795 0)
(0.525809 0.000207471 0)
(0.52314 0.000200225 0)
(0.520741 0.000187323 0)
(0.518214 0.000173955 0)
(0.516052 0.000161729 0)
(0.513706 0.000156813 0)
(0.511639 0.000153648 0)
(0.509328 0.000150937 0)
(0.507385 0.000140535 0)
(0.505262 0.000122196 0)
(0.503522 0.000108267 0)
(0.501549 0.000108505 0)
(0.499973 0.000108355 0)
(0.498153 9.72285e-05 0)
(0.496714 8.64565e-05 0)
(0.494989 8.60514e-05 0)
(0.493684 8.31707e-05 0)
(0.492085 7.39526e-05 0)
(0.490925 6.4866e-05 0)
(0.489443 6.33853e-05 0)
(0.488439 5.8319e-05 0)
(0.487074 5.3559e-05 0)
(0.486218 4.7305e-05 0)
(0.484947 4.61692e-05 0)
(0.484228 4.13397e-05 0)
(0.483041 3.92505e-05 0)
(0.482456 3.38525e-05 0)
(0.481342 3.28833e-05 0)
(0.480883 2.92178e-05 0)
(0.479834 2.82412e-05 0)
(0.479499 2.34483e-05 0)
(0.478505 2.30423e-05 0)
(0.478287 1.95294e-05 0)
(0.477333 1.96475e-05 0)
(0.477229 1.51296e-05 0)
(0.476302 1.63554e-05 0)
(0.476321 1.23097e-05 0)
(0.475408 1.39583e-05 0)
(0.475553 9.27835e-06 0)
(0.474636 1.17094e-05 0)
(0.474907 7.27399e-06 0)
(0.473971 9.49585e-06 0)
(0.474372 4.95827e-06 0)
(0.473405 7.62171e-06 0)
(0.473939 3.56215e-06 0)
(0.472923 6.74847e-06 0)
(0.473592 2.53263e-06 0)
(0.472503 6.43891e-06 0)
(0.473317 1.59341e-06 0)
(0.47213 6.03555e-06 0)
(0.47311 4.93775e-07 0)
(0.471801 5.27227e-06 0)
(0.472967 -5.27466e-07 0)
(0.471515 4.36841e-06 0)
(0.472887 -1.22171e-06 0)
(0.471266 3.72818e-06 0)
(0.472864 -1.69102e-06 0)
(0.471043 3.42882e-06 0)
(0.472897 -2.1398e-06 0)
(0.47084 3.39138e-06 0)
(0.472973 -2.62259e-06 0)
(0.470654 3.48265e-06 0)
(0.473082 -2.88759e-06 0)
(0.470482 3.67669e-06 0)
(0.473216 -2.99675e-06 0)
(0.470315 4.01361e-06 0)
(0.473369 -2.9719e-06 0)
(0.470143 4.78806e-06 0)
(0.473532 -2.8048e-06 0)
(0.469963 5.95465e-06 0)
(0.47369 -2.39891e-06 0)
(0.469768 7.54386e-06 0)
(0.473828 -1.50081e-06 0)
(0.469542 9.843e-06 0)
(0.473924 1.21953e-07 0)
(0.469265 1.36726e-05 0)
(0.473943 3.17187e-06 0)
(0.468897 2.01468e-05 0)
(0.473823 9.82969e-06 0)
(0.468364 3.10022e-05 0)
(0.473444 2.49799e-05 0)
(0.467488 5.12422e-05 0)
(0.472561 6.22805e-05 0)
(0.465804 9.96701e-05 0)