/*--------------------------------*- C++ -*----------------------------------*\
| =========                 |                                                 |
| \\      /  F ield         | OpenFOAM: The Open Source CFD Toolbox           |
|  \\    /   O peration     | Version:  v2012                                 |
|   \\  /    A nd           | Website:  www.openfoam.com                      |
|    \\/     M anipulation  |                                                 |
\*---------------------------------------------------------------------------*/
FoamFile
{
    version     2.0;
    format      ascii;
    class       volScalarField;
    location    "0.1";
    object      p;
}
// * * * * * * * * * * * * * * * * * * * * * * * * * * * * * * * * * * * * * //

dimensions      [0 2 -2 0 0 0 0];


internalField   nonuniform List<scalar> 
8800
(
-4.72734e-12
0.00117324
0.000944109
0.000715756
0.00121945
0.00101093
0.00105142
0.00149869
0.00147773
0.00146271
0.00193
0.00218406
0.0022132
0.00252646
0.00301481
0.00340473
0.00329059
0.00300389
0.00250397
0.000693281
8.70237e-06
0.00116681
0.000945073
0.000719571
0.00121634
0.00100755
0.00105219
0.00150098
0.00147501
0.00146079
0.00192647
0.00218486
0.0022126
0.00252878
0.00301131
0.00337859
0.00326968
0.00290433
0.00244409
0.00052043
1.70572e-05
0.00116355
0.000947399
0.000718783
0.00121618
0.00100806
0.00105327
0.00149926
0.00147423
0.00146027
0.00192244
0.00218929
0.00220767
0.00252731
0.00299071
0.00335208
0.00320717
0.00281544
0.00227391
0.000590119
2.96345e-05
0.0011589
0.000948381
0.00071911
0.00121661
0.00100629
0.00105394
0.00149841
0.00147522
0.00145758
0.00191658
0.00219115
0.00220282
0.0025207
0.00294569
0.00331611
0.00310983
0.00274999
0.00199129
0.000588077
4.27333e-05
0.00115241
0.000951282
0.000717218
0.00121728
0.00100599
0.00105434
0.00149578
0.00147507
0.00145471
0.0019132
0.00218598
0.00220231
0.00248925
0.00297198
0.0032159
0.0030572
0.00265739
0.00211663
0.000737742
5.80849e-05
0.00114396
0.000954486
0.000715092
0.00121876
0.00100413
0.00105403
0.00149435
0.00147471
0.00145182
0.0019059
0.00218085
0.00219873
0.00245658
0.00293963
0.00313054
0.00297536
0.00257821
0.00213568
0.000624765
7.49039e-05
0.00113287
0.000959595
0.000712015
0.00121915
0.00100367
0.0010532
0.00149208
0.00147285
0.00144795
0.00189895
0.00217323
0.00218749
0.00242506
0.00286311
0.00307134
0.00286028
0.0025069
0.00202179
0.000688565
9.36704e-05
0.00111946
0.000965723
0.000707815
0.00121978
0.00100399
0.00104945
0.00149112
0.00147042
0.00144313
0.00189048
0.00215972
0.00217224
0.002385
0.00278743
0.00299148
0.00275643
0.00239023
0.00190878
0.00078383
0.00011464
0.00110303
0.000973213
0.00070367
0.00121872
0.00100571
0.00104374
0.00149132
0.00146602
0.00143621
0.00187963
0.0021454
0.00214579
0.00235117
0.00270065
0.00289079
0.00265493
0.00227029
0.00182457
0.000886814
0.000137771
0.00108367
0.000988724
0.000699023
0.00121578
0.00101093
0.00103411
0.00149103
0.00146246
0.00142601
0.00186748
0.00212335
0.00211028
0.00230112
0.00261883
0.00277017
0.00255545
0.00217084
0.00178294
0.000994303
0.000163301
0.00106126
0.000997637
0.000695162
0.00120993
0.00101926
0.00102066
0.0014909
0.00145996
0.00141052
0.00185091
0.00210375
0.00206544
0.00224102
0.00254018
0.00264357
0.00244232
0.00209105
0.00175248
0.00106979
0.000191254
0.00103577
0.00100674
0.000692748
0.00119962
0.00103199
0.00100436
0.00148711
0.00146101
0.00138992
0.00182879
0.00208409
0.00201055
0.00216588
0.00246105
0.00252835
0.00231589
0.00201845
0.00172365
0.00112593
0.000221593
0.00100754
0.00101515
0.000692565
0.00118434
0.00104881
0.00098591
0.00147768
0.00146702
0.0013646
0.00179667
0.00206441
0.00195544
0.00207373
0.00237726
0.00243038
0.00218746
0.0019235
0.00169272
0.00119211
0.000254218
0.000976992
0.00102194
0.000695676
0.00116342
0.00106867
0.000967799
0.00145991
0.00147752
0.0013376
0.00175131
0.00204353
0.00190422
0.00196778
0.00227896
0.00234701
0.00207245
0.00180669
0.00165321
0.00127429
0.000288878
0.000944771
0.00102609
0.000702707
0.0011367
0.00109004
0.000952566
0.00143515
0.00149091
0.00131375
0.00169085
0.00201607
0.00186243
0.00185491
0.00215954
0.00226984
0.00198435
0.0016846
0.0015858
0.00134195
0.000325204
0.000911721
0.00102657
0.000714019
0.00110476
0.00111024
0.000942925
0.00139463
0.00150239
0.00129736
0.00161605
0.001975
0.00183075
0.00174583
0.00201921
0.00218356
0.0019232
0.00157648
0.00148773
0.0013691
0.000362674
0.000878846
0.0010225
0.000729461
0.0010688
0.00112629
0.000940597
0.00134206
0.00150601
0.00129078
0.00153142
0.00191337
0.00180555
0.00165182
0.00186624
0.00207392
0.00187781
0.00150078
0.00137505
0.00134468
0.000400646
0.000847179
0.0010133
0.00074829
0.00103079
0.00113519
0.000945726
0.00128168
0.0014963
0.00129358
0.00144559
0.00182842
0.00177899
0.00157891
0.00171227
0.00193776
0.00182882
0.00145909
0.00127027
0.00127253
0.000438374
0.000817699
0.000998738
0.000769197
0.00099308
0.00113475
0.000957269
0.00121096
0.00146948
0.00130172
0.00136789
0.00172273
0.00173974
0.00152499
0.00157105
0.00178254
0.00175727
0.00143722
0.00119508
0.0011775
0.00047504
0.000791268
0.000979073
0.000790355
0.000958034
0.00112396
0.000973106
0.00115805
0.00142525
0.00130786
0.0013039
0.001603
0.00167927
0.00148349
0.0014526
0.00162056
0.0016565
0.00141524
0.00115191
0.00108658
0.000509871
0.000769637
0.000954973
0.000809684
0.000927451
0.00110321
0.000993082
0.00110602
0.00136488
0.00130396
0.0012539
0.00148024
0.00159563
0.0014431
0.00135823
0.00146572
0.00153157
0.00137395
0.00112616
0.00101433
0.000542077
0.00075073
0.000927452
0.000825128
0.000902109
0.00107366
0.00100317
0.00106672
0.00129366
0.00128445
0.00121441
0.00136492
0.00149301
0.00139248
0.00128232
0.00132872
0.0013945
0.00130564
0.00110076
0.000961949
0.000570928
0.000735577
0.000897908
0.000834983
0.000881759
0.00103753
0.00100498
0.00103422
0.00121832
0.00124765
0.00117909
0.00126277
0.00137901
0.00132582
0.00121598
0.00121214
0.0012579
0.00121419
0.00106266
0.000922236
0.000595845
0.000723753
0.000867729
0.000838204
0.000865333
0.000997738
0.000996326
0.00100607
0.00114433
0.00119518
0.00114081
0.00117417
0.00126276
0.00124324
0.00114951
0.00111252
0.00113079
0.00110908
0.00100536
0.000881428
0.000616435
0.000714518
0.000838061
0.000834467
0.000850524
0.000956962
0.000976964
0.000978423
0.0010745
0.00113076
0.00109457
0.00109584
0.00115149
0.00114897
0.00107676
0.00102389
0.00101628
0.000999446
0.000929575
0.000829233
0.000632481
0.000706923
0.000809728
0.000824092
0.000835304
0.000916678
0.000947894
0.000948018
0.00100942
0.00105932
0.00103867
0.00102314
0.00104853
0.00104897
0.000995858
0.000939777
0.000913104
0.000891527
0.000840897
0.000762646
0.00064394
0.00069997
0.000783068
0.000807926
0.000818031
0.000877373
0.000911174
0.000912809
0.000948149
0.00098521
0.000974133
0.000951677
0.000953611
0.000948597
0.000908243
0.000855563
0.000817675
0.000788338
0.000746006
0.000684153
0.000650854
0.000692752
0.000758017
0.000787101
0.00079759
0.000838822
0.000869086
0.000872035
0.000889028
0.00091123
0.000903352
0.000878818
0.000864934
0.000851158
0.000816913
0.000769306
0.000726443
0.000690379
0.000650088
0.000598432
0.000653414
0.000684518
0.00073421
0.000762735
0.000773388
0.000800395
0.000823533
0.000825949
0.000830441
0.000838652
0.000829094
0.00080382
0.000780265
0.000757912
0.000724871
0.000681263
0.000637164
0.000596866
0.000556101
0.000509909
0.00065183
0.000674527
0.000711048
0.000735749
0.000745364
0.000761394
0.00077588
0.000775584
0.000771315
0.000767747
0.000753693
0.000727226
0.000697968
0.000668808
0.00063433
0.00059285
0.000549114
0.000506861
0.000465259
0.000421714
0.00064638
0.000662391
0.000687894
0.000706861
0.00071394
0.000721312
0.000727007
0.000722273
0.000711284
0.000698364
0.000678749
0.000650188
0.000617345
0.000583361
0.000546585
0.000505692
0.000462629
0.000419871
0.000377885
0.000335698
0.00063734
0.000647912
0.000664251
0.000676595
0.000679799
0.000679977
0.000677485
0.000667321
0.00065061
0.000630383
0.000605301
0.000573972
0.000538493
0.000501236
0.000462286
0.000421123
0.000378542
0.000335974
0.000294139
0.000252905
0.00062512
0.00063115
0.000639813
0.000645357
0.000643743
0.000637582
0.000627772
0.000611873
0.000589972
0.000563961
0.000534027
0.000499696
0.000461985
0.000422469
0.000381815
0.000340104
0.000297779
0.000255651
0.000214328
0.000174
0.000610126
0.000612315
0.000614508
0.000613525
0.00060661
0.000594633
0.00057838
0.00055692
0.000530235
0.000499524
0.000465491
0.000428295
0.000388595
0.000347439
0.000305569
0.000263358
0.000221189
0.00017957
0.000138942
9.95543e-05
0.000592918
0.000591831
0.000588536
0.00058155
0.000569265
0.00055188
0.000529969
0.000503404
0.000472366
0.000437736
0.000400312
0.000360585
0.000319144
0.000276745
0.00023405
0.000191516
0.000149516
0.000108426
6.85715e-05
3.01709e-05
0.000574211
0.000570328
0.000562376
0.000550029
0.000532621
0.000510251
0.000483385
0.000452295
0.000417397
0.000379449
0.000339233
0.000297373
0.000254454
0.000211093
0.000167858
0.000125193
8.34425e-05
4.28911e-05
3.78732e-06
-3.36357e-05
0.000554923
0.00054867
0.000536793
0.000519788
0.000497714
0.000470859
0.000439709
0.000404729
0.000366474
0.000325689
0.000283146
0.000239511
0.000195356
0.000151219
0.000107588
6.4885e-05
2.3461e-05
-1.64387e-05
-5.47455e-05
-9.15793e-05
0.000536222
0.000528028
0.000512918
0.000491998
0.000465877
0.000435144
0.000400412
0.000362257
0.000321272
0.000278171
0.000233725
0.000188625
0.000143454
9.86985e-05
5.476e-05
1.19494e-05
-2.94864e-05
-6.93222e-05
-0.000107297
-0.000143092
0.000519203
0.000509594
0.000492116
0.000468292
0.000439127
0.000405493
0.000368133
0.000327651
0.000284657
0.000239865
0.000194047
0.0001479
0.000102
5.68246e-05
1.27828e-05
-2.97886e-05
-7.06485e-05
-0.000109699
-0.000147021
-0.000182886
0.000504214
0.000492552
0.000472175
0.00044495
0.000412358
0.000375583
0.000335418
0.000292402
0.000247132
0.000200373
0.000152942
0.000105538
5.8683e-05
1.27809e-05
-3.18407e-05
-7.49032e-05
-0.000116154
-0.000155343
-0.000192189
-0.000226331
-0.00108293
-0.000507207
0.00170254
0.00371072
0.00504663
0.00561189
0.00544754
0.00474133
0.00382328
0.00301221
0.00244993
0.0020902
0.00183168
0.00164569
0.00156408
0.00157372
0.00158177
0.00150453
0.0013465
0.00116272
0.000982801
0.000796897
0.000588968
0.000374287
0.000197162
6.57169e-05
-6.56185e-05
-0.000224216
-0.000409399
-0.00063815
-0.000905499
-0.00115816
-0.00138114
-0.00163008
-0.00193503
-0.00226114
-0.00259966
-0.0029898
-0.003412
-0.003799
-0.00416896
-0.00458187
-0.0049778
-0.00519687
-0.00513201
-0.00480861
-0.00434561
-0.00388894
-0.00352341
-0.00326431
-0.00309054
-0.00297769
-0.0029027
-0.00284921
-0.00280676
-0.00276922
-0.00273369
-0.00269937
-0.00266674
-0.00263746
-0.00261311
-0.00259493
-0.00258341
-0.00257846
-0.00257937
-0.00258505
-0.00259436
-0.00260628
-0.00261996
-0.00263485
-0.00265061
-0.00266711
-0.00268428
-0.00270206
-0.00272043
-0.00273941
-0.00275905
-0.00277935
-0.00280031
-0.00282194
-0.00284422
-0.00286715
-0.0028907
-0.00291486
-0.00293962
-0.00296496
-0.00299086
-0.00301731
-0.0030443
-0.00307181
-0.00309984
-0.00312836
-0.00315737
-0.00318687
-0.00321683
-0.00324726
-0.00327814
-0.00330947
-0.00334124
-0.00337344
-0.00340608
-0.00343914
-0.00347262
-0.00350651
-0.00354082
-0.00357554
-0.00361066
-0.00364619
-0.00368212
-0.00371844
-0.00375517
-0.0037923
-0.00382982
-0.00386774
-0.00390605
-0.00394475
-0.00398386
-0.00402335
-0.00406325
-0.00410354
-0.00414423
-0.00418531
-0.0042268
-0.00426869
-0.00431098
-0.00435367
-0.00439678
-0.00444029
-0.00448421
-0.00452854
-0.00457329
-0.00461846
-0.00466405
-0.00471007
-0.00475651
-0.00480337
-0.00485067
-0.00489841
-0.00494658
-0.0049952
-0.00504426
-0.00509378
-0.00514374
-0.00519416
-0.00524504
-0.00529638
-0.00534819
-0.00540047
-0.00545323
-0.00550647
-0.00556019
-0.00561439
-0.00566909
-0.00572429
-0.00577999
-0.00583619
-0.0058929
-0.00595012
-0.00600786
-0.00606613
-0.00612492
-0.00618424
-0.0062441
-0.00630451
-0.00636545
-0.00642695
-0.00648901
-0.00655163
-0.0066148
-0.00667856
-0.00674288
-0.0068078
-0.00687327
-0.00693939
-0.00700601
-0.00707338
-0.00714112
-0.00720983
-0.00727861
-0.0073488
-0.00741852
-0.00749029
-0.00756095
-0.00763418
-0.00770616
-0.00778019
-0.00785447
-0.00792814
-0.00800563
-0.00807868
-0.00815824
-0.00823297
-0.00831063
-0.00838962
-0.00846316
-0.00854154
-0.00861314
-0.0086809
-0.00874009
-0.00878811
-0.00151077
-0.000906103
0.00143748
0.00350871
0.00491349
0.00555505
0.0054334
0.0047437
0.00382779
0.00300603
0.00242849
0.00206011
0.00180141
0.00161944
0.00154371
0.00156003
0.00157284
0.00149492
0.00133256
0.00114568
0.000964345
0.000778562
0.000573245
0.000360438
0.000182453
5.24152e-05
-7.43737e-05
-0.000231995
-0.000420638
-0.000651119
-0.000917464
-0.00116846
-0.00138877
-0.00163398
-0.00193523
-0.00225876
-0.00259484
-0.00297911
-0.00339254
-0.00377116
-0.0041331
-0.00454079
-0.00493692
-0.00515982
-0.00510031
-0.00477296
-0.00432718
-0.0038771
-0.0035188
-0.00326346
-0.00309073
-0.00297738
-0.00290158
-0.00284768
-0.00280539
-0.00276847
-0.00273362
-0.00269978
-0.00266769
-0.00263877
-0.00261452
-0.00259618
-0.00258443
-0.00257919
-0.00257977
-0.00258517
-0.0025943
-0.00260611
-0.00261978
-0.00263468
-0.00265048
-0.00266702
-0.00268423
-0.00270203
-0.00272041
-0.0027394
-0.00275904
-0.00277934
-0.00280031
-0.00282193
-0.00284422
-0.00286714
-0.00289069
-0.00291486
-0.00293962
-0.00296495
-0.00299086
-0.00301731
-0.0030443
-0.00307181
-0.00309983
-0.00312836
-0.00315737
-0.00318686
-0.00321683
-0.00324725
-0.00327814
-0.00330947
-0.00334124
-0.00337344
-0.00340607
-0.00343913
-0.00347262
-0.00350651
-0.00354082
-0.00357553
-0.00361066
-0.00364619
-0.00368212
-0.00371844
-0.00375517
-0.0037923
-0.00382982
-0.00386774
-0.00390605
-0.00394475
-0.00398386
-0.00402335
-0.00406325
-0.00410354
-0.00414423
-0.00418531
-0.0042268
-0.00426869
-0.00431098
-0.00435367
-0.00439678
-0.00444029
-0.00448421
-0.00452854
-0.00457329
-0.00461846
-0.00466405
-0.00471007
-0.0047565
-0.00480337
-0.00485067
-0.00489841
-0.00494658
-0.0049952
-0.00504426
-0.00509378
-0.00514374
-0.00519416
-0.00524504
-0.00529638
-0.00534819
-0.00540047
-0.00545323
-0.00550647
-0.00556019
-0.00561439
-0.00566909
-0.00572429
-0.00577999
-0.00583619
-0.0058929
-0.00595012
-0.00600786
-0.00606613
-0.00612492
-0.00618424
-0.0062441
-0.00630451
-0.00636545
-0.00642695
-0.00648901
-0.00655163
-0.0066148
-0.00667856
-0.00674288
-0.0068078
-0.00687327
-0.00693939
-0.00700601
-0.00707338
-0.00714112
-0.00720983
-0.00727861
-0.0073488
-0.00741851
-0.00749029
-0.00756094
-0.00763419
-0.00770616
-0.00778019
-0.00785447
-0.00792814
-0.00800564
-0.00807867
-0.00815825
-0.00823297
-0.00831063
-0.00838964
-0.00846316
-0.00854156
-0.00861317
-0.00868089
-0.00874032
-0.00878836
-0.00126692
-0.000979549
0.00106403
0.00314904
0.00468189
0.00545775
0.00541889
0.00476944
0.00386293
0.00302663
0.00242405
0.00203543
0.00176651
0.00158556
0.00152093
0.00155135
0.00157334
0.00149455
0.00132319
0.00112775
0.000941579
0.000751833
0.000545566
0.000337289
0.000165429
4.25666e-05
-7.63277e-05
-0.000236243
-0.000439837
-0.000678569
-0.00093545
-0.0011761
-0.00139622
-0.00163892
-0.00193116
-0.00225075
-0.00258536
-0.00295548
-0.00334371
-0.0037032
-0.00405261
-0.00443351
-0.00478506
-0.00496959
-0.00489986
-0.0046129
-0.00421073
-0.00383823
-0.0035078
-0.00326628
-0.00310097
-0.00298893
-0.00291127
-0.00285482
-0.00281028
-0.00277168
-0.00273582
-0.00270154
-0.00266922
-0.00264017
-0.00261594
-0.00259771
-0.00258602
-0.00258076
-0.00258128
-0.00258658
-0.00259553
-0.00260712
-0.00262055
-0.00263522
-0.00265083
-0.00266723
-0.00268435
-0.0027021
-0.00272044
-0.00273941
-0.00275904
-0.00277933
-0.00280029
-0.00282192
-0.0028442
-0.00286713
-0.00289068
-0.00291484
-0.0029396
-0.00296494
-0.00299084
-0.0030173
-0.00304428
-0.0030718
-0.00309982
-0.00312835
-0.00315736
-0.00318685
-0.00321682
-0.00324725
-0.00327813
-0.00330946
-0.00334123
-0.00337343
-0.00340607
-0.00343913
-0.00347261
-0.00350651
-0.00354081
-0.00357553
-0.00361065
-0.00364618
-0.00368211
-0.00371844
-0.00375517
-0.0037923
-0.00382982
-0.00386773
-0.00390604
-0.00394475
-0.00398385
-0.00402335
-0.00406325
-0.00410354
-0.00414422
-0.00418531
-0.0042268
-0.00426869
-0.00431098
-0.00435367
-0.00439678
-0.00444029
-0.00448421
-0.00452854
-0.00457329
-0.00461846
-0.00466405
-0.00471007
-0.0047565
-0.00480337
-0.00485067
-0.00489841
-0.00494658
-0.0049952
-0.00504426
-0.00509378
-0.00514374
-0.00519416
-0.00524504
-0.00529638
-0.00534819
-0.00540047
-0.00545323
-0.00550647
-0.00556019
-0.00561439
-0.00566909
-0.00572429
-0.00577999
-0.00583619
-0.0058929
-0.00595012
-0.00600786
-0.00606613
-0.00612492
-0.00618424
-0.0062441
-0.00630451
-0.00636546
-0.00642695
-0.00648901
-0.00655163
-0.00661481
-0.00667856
-0.00674288
-0.0068078
-0.00687327
-0.00693939
-0.00700601
-0.00707338
-0.00714112
-0.00720983
-0.00727861
-0.0073488
-0.00741851
-0.00749029
-0.00756094
-0.00763418
-0.00770616
-0.00778019
-0.00785447
-0.00792814
-0.00800562
-0.00807868
-0.00815823
-0.00823299
-0.00831063
-0.00838965
-0.00846321
-0.00854157
-0.00861326
-0.00868089
-0.00874075
-0.00878883
-0.000104391
-0.000525161
0.000589094
0.00258867
0.00429642
0.00520808
0.00527438
0.00471304
0.00385749
0.0030328
0.00241628
0.00200443
0.00171604
0.00152973
0.00147665
0.00152463
0.00155926
0.001482
0.00130167
0.00109664
0.000908139
0.000719324
0.000513753
0.000309704
0.000145945
3.14218e-05
-8.45041e-05
-0.000253558
-0.000469787
-0.000705387
-0.000947855
-0.00118384
-0.00140679
-0.00164389
-0.00192496
-0.00224016
-0.00257077
-0.00292186
-0.0032836
-0.00362627
-0.00395895
-0.00430506
-0.00461391
-0.00478077
-0.00474541
-0.00452495
-0.00418491
-0.0038148
-0.00350556
-0.00327691
-0.00311427
-0.00300011
-0.00291872
-0.00285886
-0.00281161
-0.00277127
-0.00273472
-0.00270067
-0.00266929
-0.00264153
-0.00261851
-0.00260111
-0.0025898
-0.00258451
-0.00258465
-0.00258936
-0.00259767
-0.00260866
-0.00262159
-0.00263589
-0.00265124
-0.00266746
-0.00268447
-0.00270215
-0.00272044
-0.00273939
-0.002759
-0.00277929
-0.00280025
-0.00282188
-0.00284416
-0.00286709
-0.00289065
-0.00291481
-0.00293957
-0.00296491
-0.00299082
-0.00301727
-0.00304426
-0.00307178
-0.0030998
-0.00312833
-0.00315734
-0.00318684
-0.0032168
-0.00324723
-0.00327812
-0.00330945
-0.00334122
-0.00337342
-0.00340606
-0.00343912
-0.0034726
-0.0035065
-0.00354081
-0.00357552
-0.00361065
-0.00364618
-0.00368211
-0.00371844
-0.00375516
-0.00379229
-0.00382981
-0.00386773
-0.00390604
-0.00394475
-0.00398385
-0.00402335
-0.00406325
-0.00410354
-0.00414422
-0.00418531
-0.0042268
-0.00426869
-0.00431098
-0.00435367
-0.00439677
-0.00444028
-0.00448421
-0.00452854
-0.00457329
-0.00461846
-0.00466405
-0.00471006
-0.0047565
-0.00480337
-0.00485067
-0.00489841
-0.00494658
-0.0049952
-0.00504426
-0.00509377
-0.00514374
-0.00519416
-0.00524504
-0.00529638
-0.00534819
-0.00540047
-0.00545323
-0.00550647
-0.00556019
-0.00561439
-0.00566909
-0.00572429
-0.00577999
-0.00583619
-0.0058929
-0.00595012
-0.00600786
-0.00606613
-0.00612492
-0.00618424
-0.0062441
-0.00630451
-0.00636546
-0.00642695
-0.00648901
-0.00655163
-0.00661481
-0.00667856
-0.00674288
-0.0068078
-0.00687327
-0.00693939
-0.00700601
-0.00707338
-0.00714112
-0.00720983
-0.00727861
-0.0073488
-0.00741851
-0.00749029
-0.00756094
-0.00763419
-0.00770616
-0.00778019
-0.00785447
-0.00792815
-0.00800563
-0.0080787
-0.00815822
-0.00823302
-0.00831064
-0.00838966
-0.00846328
-0.00854159
-0.00861337
-0.00868092
-0.00874117
-0.00878934
-0.00102553
-0.00103719
0.000556666
0.0025466
0.00411307
0.00496229
0.00508515
0.00462581
0.00385271
0.00306591
0.00244952
0.00201186
0.00169162
0.00148444
0.00142808
0.00148686
0.00153696
0.00146904
0.0012867
0.00107491
0.000884843
0.000697857
0.000490052
0.000282262
0.000120821
1.51267e-05
-9.36455e-05
-0.000266014
-0.000490393
-0.000725507
-0.000959697
-0.00119148
-0.00141426
-0.00164464
-0.00191315
-0.00222001
-0.00254407
-0.00287966
-0.00321877
-0.00353998
-0.00384967
-0.00416529
-0.00444837
-0.00461237
-0.0045912
-0.00438128
-0.00406194
-0.00374692
-0.00347969
-0.00326685
-0.00311114
-0.00299925
-0.00291782
-0.0028574
-0.00280964
-0.00276918
-0.00273298
-0.0026997
-0.00266927
-0.00264239
-0.00262002
-0.00260304
-0.00259189
-0.00258653
-0.00258645
-0.00259085
-0.00259882
-0.00260951
-0.00262217
-0.00263624
-0.0026514
-0.0026675
-0.00268448
-0.00270215
-0.00272041
-0.00273934
-0.00275894
-0.00277923
-0.00280019
-0.00282182
-0.0028441
-0.00286703
-0.00289059
-0.00291476
-0.00293952
-0.00296487
-0.00299077
-0.00301723
-0.00304422
-0.00307174
-0.00309977
-0.0031283
-0.00315731
-0.00318681
-0.00321678
-0.00324721
-0.0032781
-0.00330943
-0.0033412
-0.00337341
-0.00340604
-0.00343911
-0.00347259
-0.00350649
-0.0035408
-0.00357551
-0.00361064
-0.00364617
-0.0036821
-0.00371843
-0.00375516
-0.00379228
-0.00382981
-0.00386772
-0.00390604
-0.00394474
-0.00398385
-0.00402335
-0.00406324
-0.00410353
-0.00414422
-0.00418531
-0.00422679
-0.00426868
-0.00431098
-0.00435367
-0.00439677
-0.00444028
-0.00448421
-0.00452854
-0.00457329
-0.00461846
-0.00466405
-0.00471006
-0.0047565
-0.00480337
-0.00485067
-0.00489841
-0.00494658
-0.0049952
-0.00504426
-0.00509377
-0.00514374
-0.00519416
-0.00524504
-0.00529638
-0.00534819
-0.00540047
-0.00545323
-0.00550647
-0.00556019
-0.00561439
-0.00566909
-0.00572429
-0.00577999
-0.00583619
-0.0058929
-0.00595012
-0.00600786
-0.00606613
-0.00612492
-0.00618424
-0.0062441
-0.00630451
-0.00636546
-0.00642695
-0.00648901
-0.00655163
-0.00661481
-0.00667856
-0.00674288
-0.0068078
-0.00687327
-0.00693939
-0.00700601
-0.00707338
-0.00714112
-0.00720983
-0.00727861
-0.0073488
-0.00741851
-0.00749029
-0.00756094
-0.00763419
-0.00770616
-0.00778019
-0.00785447
-0.00792816
-0.00800562
-0.00807872
-0.00815821
-0.00823303
-0.00831066
-0.00838966
-0.00846336
-0.00854161
-0.00861349
-0.00868096
-0.00874156
-0.00878989
-0.00119904
-0.001072
0.000710243
0.00259816
0.0039604
0.00468602
0.00482717
0.00446844
0.00379823
0.00307471
0.00248172
0.002033
0.00168373
0.00144883
0.00137437
0.00143376
0.00149907
0.00144692
0.00127059
0.00105673
0.000863076
0.000673823
0.000463438
0.000250629
8.62973e-05
-9.51929e-06
-9.92663e-05
-0.000266957
-0.000508551
-0.000754621
-0.000976816
-0.0011947
-0.00141666
-0.00164424
-0.00189833
-0.00219283
-0.00251344
-0.0028381
-0.00315034
-0.00344472
-0.00373637
-0.00403569
-0.00430138
-0.0044471
-0.00441411
-0.00423425
-0.00398499
-0.00371405
-0.00346575
-0.00326476
-0.00311674
-0.0030066
-0.00292395
-0.00286157
-0.00281192
-0.00277014
-0.00273333
-0.0027001
-0.00267023
-0.00264421
-0.00262275
-0.0026065
-0.00259576
-0.00259046
-0.00259011
-0.00259403
-0.00260142
-0.0026115
-0.00262362
-0.00263722
-0.00265203
-0.00266789
-0.00268475
-0.00270218
-0.00272038
-0.00273927
-0.00275885
-0.00277913
-0.00280009
-0.00282172
-0.00284401
-0.00286695
-0.00289051
-0.00291468
-0.00293945
-0.0029648
-0.00299071
-0.00301717
-0.00304417
-0.00307169
-0.00309972
-0.00312825
-0.00315727
-0.00318677
-0.00321674
-0.00324718
-0.00327807
-0.0033094
-0.00334118
-0.00337338
-0.00340602
-0.00343909
-0.00347257
-0.00350647
-0.00354078
-0.0035755
-0.00361063
-0.00364616
-0.00368209
-0.00371842
-0.00375515
-0.00379228
-0.0038298
-0.00386772
-0.00390603
-0.00394474
-0.00398384
-0.00402334
-0.00406324
-0.00410353
-0.00414422
-0.0041853
-0.00422679
-0.00426868
-0.00431097
-0.00435367
-0.00439677
-0.00444028
-0.0044842
-0.00452854
-0.00457329
-0.00461846
-0.00466405
-0.00471006
-0.0047565
-0.00480337
-0.00485067
-0.00489841
-0.00494658
-0.0049952
-0.00504426
-0.00509377
-0.00514374
-0.00519416
-0.00524504
-0.00529638
-0.00534819
-0.00540047
-0.00545323
-0.00550647
-0.00556019
-0.00561439
-0.00566909
-0.00572429
-0.00577999
-0.00583619
-0.0058929
-0.00595012
-0.00600786
-0.00606613
-0.00612492
-0.00618424
-0.0062441
-0.00630451
-0.00636546
-0.00642695
-0.00648901
-0.00655163
-0.00661481
-0.00667856
-0.00674288
-0.0068078
-0.00687327
-0.00693939
-0.00700601
-0.00707338
-0.00714112
-0.00720983
-0.00727861
-0.0073488
-0.00741851
-0.00749029
-0.00756094
-0.00763419
-0.00770616
-0.00778019
-0.00785446
-0.00792817
-0.00800562
-0.00807874
-0.00815821
-0.00823306
-0.00831069
-0.00838967
-0.00846346
-0.00854163
-0.00861364
-0.00868104
-0.00874193
-0.00879046
-0.000901677
-0.000890755
0.000644156
0.00237626
0.00367058
0.00435651
0.00450423
0.00423108
0.00368081
0.0030483
0.00249562
0.00205427
0.00169015
0.0014252
0.00131829
0.00136433
0.00143961
0.0014065
0.00124453
0.00103573
0.000841161
0.000649933
0.000438978
0.000223708
5.39481e-05
-3.85573e-05
-0.000111193
-0.000270501
-0.000526016
-0.000782539
-0.000991649
-0.00119419
-0.00141633
-0.00164206
-0.00188107
-0.00216444
-0.00248147
-0.00279105
-0.00307592
-0.0033486
-0.0036295
-0.00391575
-0.00414914
-0.00426021
-0.00423758
-0.00410861
-0.00389785
-0.00364689
-0.00342159
-0.00324694
-0.00310817
-0.00300138
-0.00291957
-0.00285747
-0.00280781
-0.00276618
-0.00272985
-0.00269744
-0.00266862
-0.00264365
-0.00262307
-0.00260741
-0.00259697
-0.00259171
-0.00259124
-0.00259493
-0.00260205
-0.00261189
-0.00262381
-0.00263722
-0.00265187
-0.00266772
-0.00268464
-0.00270207
-0.00272024
-0.00273912
-0.0027587
-0.00277898
-0.00279994
-0.00282158
-0.00284388
-0.00286682
-0.00289039
-0.00291457
-0.00293935
-0.0029647
-0.00299062
-0.00301709
-0.00304409
-0.00307162
-0.00309966
-0.00312819
-0.00315722
-0.00318672
-0.0032167
-0.00324713
-0.00327803
-0.00330936
-0.00334114
-0.00337335
-0.00340599
-0.00343906
-0.00347254
-0.00350645
-0.00354076
-0.00357548
-0.00361061
-0.00364614
-0.00368207
-0.0037184
-0.00375514
-0.00379226
-0.00382979
-0.00386771
-0.00390602
-0.00394473
-0.00398383
-0.00402333
-0.00406323
-0.00410352
-0.00414421
-0.0041853
-0.00422679
-0.00426868
-0.00431097
-0.00435366
-0.00439677
-0.00444028
-0.0044842
-0.00452854
-0.00457329
-0.00461846
-0.00466405
-0.00471006
-0.0047565
-0.00480337
-0.00485067
-0.00489841
-0.00494658
-0.0049952
-0.00504426
-0.00509377
-0.00514374
-0.00519416
-0.00524504
-0.00529638
-0.00534819
-0.00540047
-0.00545323
-0.00550647
-0.00556019
-0.00561439
-0.00566909
-0.00572429
-0.00577999
-0.00583619
-0.0058929
-0.00595012
-0.00600786
-0.00606613
-0.00612492
-0.00618424
-0.0062441
-0.00630451
-0.00636546
-0.00642695
-0.00648901
-0.00655163
-0.00661481
-0.00667856
-0.00674288
-0.0068078
-0.00687327
-0.00693939
-0.00700601
-0.00707338
-0.00714112
-0.00720983
-0.00727861
-0.0073488
-0.00741852
-0.00749029
-0.00756095
-0.00763419
-0.00770616
-0.0077802
-0.00785446
-0.00792818
-0.00800561
-0.00807875
-0.00815821
-0.00823307
-0.00831073
-0.00838967
-0.00846358
-0.00854166
-0.00861379
-0.00868114
-0.00874227
-0.00879104
-0.000468805
-0.000590461
0.000552999
0.00206663
0.00332526
0.00402653
0.0041914
0.00397844
0.00353384
0.00299766
0.00249457
0.00207328
0.00170864
0.00141816
0.00127624
0.00129553
0.00136766
0.00135199
0.00121088
0.00101503
0.000827052
0.00063468
0.000416909
0.000197968
2.4011e-05
-7.55154e-05
-0.000141305
-0.000279364
-0.000527648
-0.000795853
-0.00100899
-0.00120117
-0.00141465
-0.00163528
-0.00186465
-0.00213499
-0.00244059
-0.00273741
-0.00300307
-0.00325762
-0.00352469
-0.00378095
-0.00397569
-0.00408107
-0.00408482
-0.00397983
-0.00379362
-0.00358258
-0.00339236
-0.00323132
-0.00310063
-0.00299849
-0.0029181
-0.00285645
-0.00280645
-0.0027646
-0.00272839
-0.0026965
-0.00266853
-0.00264458
-0.002625
-0.00261016
-0.00260026
-0.0025952
-0.00259463
-0.00259798
-0.00260462
-0.00261393
-0.00262536
-0.00263829
-0.00265255
-0.00266848
-0.00268477
-0.00270204
-0.00272012
-0.00273896
-0.00275852
-0.00277879
-0.00279976
-0.0028214
-0.00284371
-0.00286666
-0.00289024
-0.00291443
-0.00293921
-0.00296458
-0.0029905
-0.00301698
-0.00304399
-0.00307152
-0.00309957
-0.00312811
-0.00315714
-0.00318665
-0.00321663
-0.00324708
-0.00327797
-0.00330931
-0.00334109
-0.00337331
-0.00340595
-0.00343902
-0.00347251
-0.00350642
-0.00354073
-0.00357545
-0.00361058
-0.00364612
-0.00368205
-0.00371839
-0.00375512
-0.00379225
-0.00382977
-0.00386769
-0.00390601
-0.00394472
-0.00398382
-0.00402333
-0.00406322
-0.00410351
-0.0041442
-0.00418529
-0.00422678
-0.00426867
-0.00431096
-0.00435366
-0.00439676
-0.00444027
-0.0044842
-0.00452853
-0.00457329
-0.00461845
-0.00466405
-0.00471006
-0.0047565
-0.00480337
-0.00485067
-0.00489841
-0.00494658
-0.0049952
-0.00504426
-0.00509377
-0.00514374
-0.00519416
-0.00524504
-0.00529638
-0.00534819
-0.00540047
-0.00545323
-0.00550647
-0.00556019
-0.00561439
-0.00566909
-0.00572429
-0.00577999
-0.00583619
-0.0058929
-0.00595012
-0.00600786
-0.00606613
-0.00612492
-0.00618424
-0.0062441
-0.00630451
-0.00636546
-0.00642695
-0.00648901
-0.00655163
-0.00661481
-0.00667856
-0.00674288
-0.0068078
-0.00687327
-0.00693939
-0.00700601
-0.00707338
-0.00714112
-0.00720983
-0.00727861
-0.0073488
-0.00741852
-0.0074903
-0.00756095
-0.00763419
-0.00770616
-0.0077802
-0.00785446
-0.00792819
-0.0080056
-0.00807877
-0.00815821
-0.00823309
-0.00831078
-0.00838967
-0.00846371
-0.0085417
-0.00861395
-0.00868128
-0.00874258
-0.00879162
-0.000115069
-0.000305579
0.000543668
0.00183314
0.00300141
0.00369767
0.00388078
0.00371207
0.00335591
0.00291623
0.00247252
0.00207604
0.00172316
0.00142273
0.0012502
0.00123604
0.0012915
0.00128305
0.00116089
0.000985206
0.00081183
0.000620728
0.000393258
0.000169312
-5.51186e-06
-0.000112297
-0.000176279
-0.000290843
-0.000522905
-0.000802926
-0.00102877
-0.00121195
-0.00141226
-0.00162763
-0.00184463
-0.00209651
-0.00239392
-0.00268493
-0.00293377
-0.00316397
-0.00339984
-0.00362794
-0.0038179
-0.00392765
-0.00393012
-0.00383826
-0.00369116
-0.00352038
-0.00335188
-0.00320337
-0.00308368
-0.00298751
-0.00291009
-0.00285036
-0.00280102
-0.00275981
-0.00272434
-0.00269336
-0.00266643
-0.00264348
-0.00262474
-0.00261049
-0.00260091
-0.00259594
-0.00259528
-0.00259845
-0.00260487
-0.00261397
-0.00262526
-0.00263797
-0.00265215
-0.00266809
-0.0026845
-0.00270176
-0.00271983
-0.00273867
-0.00275824
-0.00277852
-0.00279949
-0.00282115
-0.00284347
-0.00286644
-0.00289003
-0.00291424
-0.00293904
-0.00296441
-0.00299035
-0.00301684