/*--------------------------------*- C++ -*----------------------------------*\
| =========                 |                                                 |
| \\      /  F ield         | OpenFOAM: The Open Source CFD Toolbox           |
|  \\    /   O peration     | Version:  v2012                                 |
|   \\  /    A nd           | Website:  www.openfoam.com                      |
|    \\/     M anipulation  |                                                 |
\*---------------------------------------------------------------------------*/
FoamFile
{
    version     2.0;
    format      ascii;
    class       surfaceScalarField;
    location    "0.1";
    object      phi;
}
// * * * * * * * * * * * * * * * * * * * * * * * * * * * * * * * * * * * * * //

dimensions      [0 3 -1 0 0 0 0];
oriented        oriented;


internalField   nonuniform List<scalar> 
17340
(
3.90637e-06
-2.37852e-07
3.86604e-06
3.10385e-07
3.87857e-06
-8.60704e-08
3.89153e-06
-9.8838e-08
3.87038e-06
7.79642e-08
3.87041e-06
1.04206e-07
3.87826e-06
-1.06007e-07
3.88384e-06
-6.48492e-08
3.87556e-06
1.5236e-08
3.87222e-06
7.51828e-08
3.86906e-06
2.66863e-08
3.87265e-06
-2.18032e-08
3.87425e-06
-5.28241e-08
3.87522e-06
-2.00624e-08
3.87189e-06
-1.57363e-08
3.86499e-06
3.19642e-08
3.85719e-06
3.13606e-08
3.84407e-06
3.85979e-08
3.83209e-06
3.51152e-08
3.3565e-08
3.80981e-06
4.19209e-06
-2.44086e-07
4.19094e-06
3.11536e-07
4.18593e-06
-8.10559e-08
4.19373e-06
-1.06644e-07
4.18254e-06
8.91543e-08
4.19029e-06
9.64653e-08
4.18531e-06
-1.01029e-07
4.18764e-06
-6.71865e-08
4.18199e-06
2.08945e-08
4.18685e-06
7.0314e-08
4.18381e-06
2.9732e-08
4.18469e-06
-2.26799e-08
4.18057e-06
-4.87128e-08
4.17991e-06
-1.93977e-08
4.17552e-06
-1.13513e-08
4.17216e-06
3.53247e-08
4.16775e-06
3.57726e-08
4.15706e-06
4.92858e-08
4.14904e-06
4.31419e-08
5.23451e-08
4.13026e-06
4.5133e-06
-2.37324e-07
4.52843e-06
2.96402e-07
4.51767e-06
-7.02885e-08
4.51982e-06
-1.08794e-07
4.51748e-06
9.14885e-08
4.52678e-06
8.71711e-08
4.51729e-06
-9.15416e-08
4.51565e-06
-6.55451e-08
4.51342e-06
2.31272e-08
4.52072e-06
6.30061e-08
4.51976e-06
3.06944e-08
4.51867e-06
-2.1587e-08
4.51136e-06
-4.14074e-08
4.51078e-06
-1.88143e-08
4.50273e-06
-3.30566e-09
4.50545e-06
3.26056e-08
4.49709e-06
4.41377e-08
4.49504e-06
5.13348e-08
4.48639e-06
5.17892e-08
6.98315e-08
4.46891e-06
4.87074e-06
-2.27117e-07
4.88932e-06
2.77826e-07
4.87766e-06
-5.8628e-08
4.87819e-06
-1.09333e-07
4.878e-06
9.16834e-08
4.88769e-06
7.74818e-08
4.8776e-06
-8.14525e-08
4.87462e-06
-6.25666e-08
4.87339e-06
2.4363e-08
4.88075e-06
5.56395e-08
4.88067e-06
3.07731e-08
4.87888e-06
-1.9797e-08
4.87101e-06
-3.35328e-08
4.87037e-06
-1.8173e-08
4.86084e-06
6.21791e-09
4.86523e-06
2.82154e-08
4.85469e-06
5.4679e-08
4.86188e-06
4.41496e-08
4.86319e-06
5.04763e-08
2.36145e-08
4.90941e-06
5.25944e-06
-2.15907e-07
5.27916e-06
2.58107e-07
5.26704e-06
-4.65071e-08
5.26751e-06
-1.0981e-07
5.26744e-06
9.17586e-08
5.27713e-06
6.77862e-08
5.26736e-06
-7.16806e-08
5.26372e-06
-5.8923e-08
5.26297e-06
2.51148e-08
5.2697e-06
4.89076e-08
5.27019e-06
3.02818e-08
5.26772e-06
-1.73236e-08
5.2607e-06
-2.65155e-08
5.25774e-06
-1.522e-08
5.25194e-06
1.20246e-08
5.25006e-06
3.00921e-08
5.24864e-06
5.61039e-08
5.24687e-06
4.59174e-08
5.24125e-06
5.60996e-08
3.587e-08
5.22899e-06
5.67963e-06
-2.04082e-07
5.70017e-06
2.37569e-07
5.68765e-06
-3.39838e-08
5.68822e-06
-1.1038e-07
5.68826e-06
9.17128e-08
5.69746e-06
5.85956e-08
5.68843e-06
-6.26599e-08
5.68396e-06
-5.44461e-08
5.68403e-06
2.5046e-08
5.68978e-06
4.31566e-08
5.69073e-06
2.93311e-08
5.68756e-06
-1.41514e-08
5.68133e-06
-2.02849e-08
5.67659e-06
-1.04846e-08
5.67383e-06
1.47895e-08
5.66822e-06
3.56927e-08
5.67243e-06
5.18999e-08
5.66328e-06
5.50615e-08
5.66422e-06
5.51617e-08
4.8244e-08
5.65185e-06
6.13349e-06
-1.91704e-07
6.1547e-06
2.16365e-07
6.14197e-06
-2.12615e-08
6.14247e-06
-1.10874e-07
6.14283e-06
9.13529e-08
6.15113e-06
5.02895e-08
6.14331e-06
-5.48366e-08
6.13778e-06
-4.8919e-08
6.1387e-06
2.41258e-08
6.14336e-06
3.84986e-08
6.14473e-06
2.79666e-08
6.14101e-06
-1.04354e-08
6.13543e-06
-1.47018e-08
6.12992e-06
-4.98127e-09
6.12761e-06
1.71067e-08
6.12349e-06
3.98056e-08
6.12458e-06
5.08171e-08
6.12066e-06
5.89777e-08
6.11867e-06
5.71513e-08
5.45792e-08
6.11233e-06
6.62368e-06
-1.78826e-07
6.6454e-06
1.94652e-07
6.63269e-06
-8.55056e-09
6.63285e-06
-1.11033e-07
6.63388e-06
9.032e-08
6.64089e-06
4.32821e-08
6.63453e-06
-4.84787e-08
6.62784e-06
-4.22311e-08
6.6296e-06
2.23661e-08
6.63338e-06
3.47184e-08
6.63487e-06
2.64744e-08
6.63063e-06
-6.19292e-09
6.62579e-06
-9.86008e-09
6.61969e-06
1.11499e-09
6.61747e-06
1.93279e-08
6.61527e-06
4.20107e-08
6.61382e-06
5.22574e-08
6.6151e-06
5.77051e-08
6.61462e-06
5.76303e-08
5.31792e-08
6.61602e-06
7.15313e-06
-1.65524e-07
7.17512e-06
1.72656e-07
7.16271e-06
3.86241e-09
7.16227e-06
-1.10588e-07
7.16427e-06
8.83116e-08
7.16962e-06
3.79398e-08
7.16492e-06
-4.37828e-08
7.15728e-06
-3.45858e-08
7.15944e-06
2.02041e-08
7.16273e-06
3.14267e-08
7.16388e-06
2.53271e-08
7.15958e-06
-1.89292e-09
7.15509e-06
-5.36977e-09
7.14933e-06
6.86913e-09
7.14637e-06
2.22951e-08
7.14598e-06
4.2392e-08
7.144e-06
5.4238e-08
7.14715e-06
5.45582e-08
7.14953e-06
5.52466e-08
4.55987e-08
7.15711e-06
7.72497e-06
-1.51891e-07
7.74699e-06
1.50636e-07
7.73521e-06
1.56441e-08
7.73382e-06
-1.09196e-07
7.73714e-06
8.4993e-08
7.74057e-06
3.4508e-08
7.73749e-06
-4.07036e-08
7.72927e-06
-2.63711e-08
7.73127e-06
1.82082e-08
7.73454e-06
2.81602e-08
7.73518e-06
2.46842e-08
7.73072e-06
2.56653e-09
7.7267e-06
-1.35249e-09
7.7214e-06
1.21709e-08
7.71805e-06
2.56448e-08
7.71831e-06
4.21279e-08
7.71809e-06
5.44586e-08
7.7197e-06
5.2954e-08
7.7215e-06
5.34486e-08
4.6532e-08
7.72056e-06
8.34261e-06
-1.38043e-07
8.36436e-06
1.28888e-07
8.35355e-06
2.64553e-08
8.35091e-06
-1.06551e-07
8.35578e-06
8.01214e-08
8.35721e-06
3.30762e-08
8.35547e-06
-3.89665e-08
8.34731e-06
-1.82051e-08
8.34853e-06
1.698e-08
8.35205e-06
2.4649e-08
8.35219e-06
2.45368e-08
8.34754e-06
7.21605e-09
8.34382e-06
2.36986e-09
8.33949e-06
1.64975e-08
8.33592e-06
2.92222e-08
8.33614e-06
4.19018e-08
8.33775e-06
5.28547e-08
8.33782e-06
5.28769e-08
8.33933e-06
5.19386e-08
4.77098e-08
8.33816e-06
9.00973e-06
-1.24123e-07
9.03086e-06
1.07757e-07
9.02139e-06
3.59228e-08
9.01721e-06
-1.02374e-07
9.02374e-06
7.35978e-08
9.02332e-06
3.34883e-08
9.02243e-06
-3.80753e-08
9.01504e-06
-1.08144e-08
9.01496e-06
1.70648e-08
9.01871e-06
2.08935e-08
9.01872e-06
2.453e-08
9.01378e-06
1.21545e-08
9.01016e-06
5.99075e-09
9.00704e-06
1.96147e-08
9.00356e-06
3.2703e-08
9.00338e-06
4.20813e-08
9.00571e-06
5.05284e-08
9.00617e-06
5.24118e-08
9.00736e-06
5.07574e-08
4.67697e-08
9.0083e-06
9.73027e-06
-1.10291e-07
9.75042e-06
8.76043e-08
9.74264e-06
4.37017e-08
9.73673e-06
-9.64594e-08
9.74486e-06
6.54669e-08
9.74298e-06
3.53716e-08
9.74224e-06
-3.73356e-08
9.73631e-06
-4.8887e-09
9.73472e-06
1.86577e-08
9.73836e-06
1.72557e-08
9.73868e-06
2.42056e-08
9.73347e-06
1.7369e-08
9.72973e-06
9.73123e-09
9.72774e-06
2.1605e-08
9.72493e-06
3.55114e-08
9.72414e-06
4.28734e-08
9.72634e-06
4.83204e-08
9.72815e-06
5.06039e-08
9.72929e-06
4.96217e-08
4.48853e-08
9.73117e-06
1.05085e-05
-9.67274e-08
1.05273e-05
6.88031e-08
1.05215e-05
4.94918e-08
1.05138e-05
-8.87379e-08
1.05233e-05
5.60046e-08
1.05205e-05
3.81305e-08
1.05192e-05
-3.60149e-08
1.05152e-05
-8.88554e-10
1.05123e-05
2.15695e-08
1.05152e-05
1.43599e-08
1.05162e-05
2.32013e-08
1.0511e-05
2.24976e-08
1.05069e-05
1.39006e-08
1.05057e-05
2.27367e-08
1.0504e-05
3.72254e-08
1.05028e-05
4.41009e-08
1.05044e-05
4.67443e-08
1.05072e-05
4.78185e-08
1.05083e-05
4.84884e-08
4.37626e-08
1.05094e-05
1.13491e-05
-8.36222e-08
1.13662e-05
5.17089e-08
1.13626e-05
5.3084e-08
1.13531e-05
-7.93042e-08
1.13635e-05
4.56783e-08
1.13605e-05
4.10528e-08
1.1358e-05
-3.3464e-08
1.1356e-05
1.07217e-09
1.13524e-05
2.52261e-08
1.13539e-05
1.28713e-08
1.13557e-05
2.13903e-08
1.13511e-05
2.70577e-08
1.13464e-05
1.8622e-08
1.13456e-05
2.34821e-08
1.13452e-05
3.77149e-08
1.13441e-05
4.51603e-08
1.13447e-05
4.61244e-08
1.13476e-05
4.49308e-08
1.13494e-05
4.67298e-08
4.33384e-08
1.13498e-05
1.22569e-05
-7.11669e-08
1.2272e-05
3.66338e-08
1.22706e-05
5.43945e-08
1.22598e-05
-6.8442e-08
1.22703e-05
3.51333e-08
1.2268e-05
4.33943e-08
1.22638e-05
-2.92623e-08
1.22636e-05
1.27992e-09
1.226e-05
2.8821e-08
1.22596e-05
1.32201e-08
1.22619e-05
1.91106e-08
1.22586e-05
3.04076e-08
1.22534e-05
2.37818e-08
1.22525e-05
2.43757e-08
1.2253e-05
3.71887e-08
1.22527e-05
4.54694e-08
1.22526e-05
4.62667e-08
1.22547e-05
4.27675e-08
1.22572e-05
4.42398e-08
4.25611e-08
1.2258e-05
1.32373e-05
-5.95424e-08
1.32501e-05
2.38174e-08
1.3251e-05
5.34894e-08
1.32392e-05
-5.66073e-08
1.32492e-05
2.50931e-08
1.32481e-05
4.45428e-08
1.32422e-05
-2.33523e-08
1.32431e-05
3.90987e-10
1.32404e-05
3.15217e-08
1.32381e-05
1.54606e-08
1.32403e-05
1.69683e-08
1.32385e-05
3.21329e-08
1.32334e-05
2.89325e-08
1.32319e-05
2.58692e-08
1.3233e-05
3.60681e-08
1.32337e-05
4.47614e-08
1.32334e-05
4.65797e-08
1.32344e-05
4.1743e-08
1.32372e-05
4.14321e-08
4.13931e-08
1.32384e-05
1.42961e-05
-4.89072e-08
1.43065e-05
1.33998e-08
1.43094e-05
5.06013e-08
1.42972e-05
-4.43938e-08
1.4306e-05
1.62749e-08
1.43064e-05
4.41042e-08
1.42992e-05
-1.60617e-08
1.43003e-05
-7.18937e-10
1.4299e-05
3.27599e-08
1.42954e-05
1.90807e-08
1.42966e-05
1.57522e-08
1.42965e-05
3.22295e-08
1.42921e-05
3.33903e-08
1.42898e-05
2.81098e-08
1.4291e-05
3.48752e-08
1.42926e-05
4.3227e-08
1.42928e-05
4.63534e-08
1.42929e-05
4.16467e-08
1.42952e-05
3.91366e-08
3.97508e-08
1.42968e-05
1.54395e-05
-3.93848e-08
1.54475e-05
5.40423e-09
1.5452e-05
4.61174e-08
1.544e-05
-3.24632e-08
1.5447e-05
9.26239e-09
1.54491e-05
4.20063e-08
1.54411e-05
-8.04624e-09
1.54416e-05
-1.17845e-09
1.5442e-05
3.23735e-08
1.54378e-05
2.32548e-08
1.54375e-05
1.59986e-08
1.54386e-05
3.11419e-08
1.54355e-05
3.65216e-08
1.54327e-05
3.08791e-08
1.54335e-05
3.40786e-08
1.54355e-05
4.12673e-08
1.54366e-05
4.5251e-08
1.54363e-05
4.19147e-08
1.54377e-05
3.77622e-08
3.78196e-08
1.54396e-05
1.66741e-05
-3.10529e-08
1.66798e-05
-2.74655e-10
1.66854e-05
4.05418e-08
1.66744e-05
-2.14404e-08
1.66792e-05
4.3912e-09
1.66827e-05
3.85219e-08
1.66748e-05
-1.09328e-10
1.6674e-05
-4.18725e-10
1.66757e-05
3.06886e-08
1.66719e-05
2.70887e-08
1.66701e-05
1.7752e-08
1.66716e-05
2.96188e-08
1.66701e-05
3.80344e-08
1.66673e-05
3.36865e-08
1.66675e-05
3.39039e-08
1.66695e-05
3.93064e-08
1.66713e-05
4.34189e-08
1.66713e-05
4.19023e-08
1.66719e-05
3.72078e-08
3.59281e-08
1.66737e-05
1.80073e-05
-2.3937e-08
1.80109e-05
-3.85901e-09
1.8017e-05
3.44369e-08
1.80074e-05
-1.18413e-08
1.801e-05
1.72796e-09
1.80144e-05
3.41759e-08
1.80073e-05
6.98325e-09
1.80052e-05
1.71907e-09
1.80075e-05
2.83415e-08
1.80047e-05
2.99259e-08
1.80018e-05
2.05829e-08
1.80031e-05
2.83988e-08
1.8003e-05
3.80874e-08
1.80007e-05
3.59606e-08
1.80004e-05
3.42763e-08
1.8002e-05
3.76752e-08
1.80042e-05
4.12522e-08
1.80048e-05
4.12066e-08
1.8005e-05
3.70077e-08
3.44401e-08
1.80065e-05
1.94468e-05
-1.80054e-08
1.94486e-05
-5.67364e-09
1.94547e-05
2.83526e-08
1.94468e-05
-3.99038e-09
1.94475e-05
1.05565e-09
1.9452e-05
2.96247e-08
1.94463e-05
1.26789e-08
1.9443e-05
5.00105e-09
1.94454e-05
2.60248e-08
1.94438e-05
3.15001e-08
1.94406e-05
2.38195e-08
1.9441e-05
2.79255e-08
1.9442e-05
3.71561e-08
1.94406e-05
3.73032e-08
1.94399e-05
3.49413e-08
1.94411e-05
3.6496e-08
1.94433e-05
3.91176e-08
1.94446e-05
3.98234e-08
1.9445e-05
3.66753e-08
3.34741e-08
1.94459e-05
2.1001e-05
-1.31809e-08
2.10014e-05
-6.09204e-09
2.1007e-05
2.27505e-08
2.1001e-05
2.01816e-09
2.10001e-05
1.94277e-09
2.10043e-05
2.54273e-08
2.10002e-05
1.68109e-08
2.09963e-05
8.9158e-09
2.0998e-05
2.4272e-08
2.09976e-05
3.19235e-08
2.09946e-05
2.68013e-08
2.09943e-05
2.82423e-08
2.09956e-05
3.58168e-08
2.09953e-05
3.76305e-08
2.09947e-05
3.55508e-08
2.09955e-05
3.5701e-08
2.09974e-05
3.72452e-08
2.09991e-05
3.80404e-08
2.09998e-05
3.59753e-08
3.27814e-08
2.10005e-05
2.26791e-05
-9.34839e-09
2.26785e-05
-5.50682e-09
2.26833e-05
1.79669e-08
2.2679e-05
6.29627e-09
2.26771e-05
3.84155e-09
2.26805e-05
2.20126e-08
2.26779e-05
1.9471e-08
2.26739e-05
1.2889e-08
2.26748e-05
2.3339e-08
2.26752e-05
3.15395e-08
2.26729e-05
2.90822e-08
2.26721e-05
2.9078e-08
2.26734e-05
3.45339e-08
2.26739e-05
3.71295e-08
2.26736e-05
3.57998e-08
2.26742e-05
3.51343e-08
2.26757e-05
3.56926e-08
2.26776e-05
3.61794e-08
2.26787e-05
3.48852e-08
3.20597e-08
2.26794e-05
2.4491e-05
-6.36965e-09
2.44897e-05
-4.28529e-09
2.44935e-05
1.41867e-08
2.44907e-05
9.10713e-09
2.44883e-05
6.21597e-09
2.44908e-05
1.95883e-08
2.44893e-05
2.09337e-08
2.44857e-05
1.64496e-08
2.44859e-05
2.31926e-08
2.44867e-05
3.07526e-08
2.44853e-05
3.04926e-08
2.44843e-05
3.00406e-08
2.44853e-05
3.35274e-08
2.44863e-05
3.61184e-08
2.44866e-05
3.55517e-08
2.44871e-05
3.45882e-08
2.44884e-05
3.44028e-08
2.44902e-05
3.44253e-08
2.44915e-05
3.35155e-08
3.11367e-08
2.44925e-05
2.64473e-05
-4.09802e-09
2.64457e-05
-2.73799e-09
2.64485e-05
1.14475e-08
2.64468e-05
1.07865e-08
2.64444e-05
8.62987e-09
2.64458e-05
1.81396e-08
2.64452e-05
2.15582e-08
2.64424e-05
1.93072e-08
2.6442e-05
2.35913e-08
2.64428e-05
2.98917e-08
2.64422e-05
3.1088e-08
2.64415e-05
3.07901e-08
2.64422e-05
3.2787e-08
2.64434e-05
3.48915e-08
2.64442e-05
3.48342e-08
2.64449e-05
3.38892e-08
2.6446e-05
3.32473e-08
2.64476e-05
3.28235e-08
2.64491e-05
3.20001e-08
2.99794e-08
2.64503e-05
2.85596e-05
-2.38941e-09
2.8558e-05
-1.10668e-09
2.85598e-05
9.66227e-09
2.85589e-05
1.16848e-08
2.85567e-05
1.07815e-08
2.85574e-05
1.7485e-08
2.85572e-05
2.16919e-08
2.85552e-05
2.13514e-08
2.85546e-05
2.42213e-08
2.85553e-05
2.91318e-08
2.85554e-05
3.10432e-08
2.8555e-05
3.11187e-08
2.85556e-05
3.21806e-08
2.85569e-05
3.36224e-08
2.8558e-05
3.37622e-08
2.85589e-05
3.29501e-08
2.85601e-05
3.20864e-08
2.85616e-05
3.13284e-08
2.85632e-05
3.04294e-08
2.86328e-08
2.85645e-05
3.08404e-05
-1.11526e-09
3.08389e-05
4.41782e-10
3.08399e-05
8.66106e-09
3.08394e-05
1.21069e-08
3.08377e-05
1.25034e-08
3.08378e-05
1.73632e-08
3.08379e-05
2.1589e-08
3.08367e-05
2.26151e-08
3.08361e-05
2.48014e-08
3.08367e-05
2.84914e-08
3.08372e-05
3.05526e-08
3.08374e-05
3.09691e-08
3.0838e-05
3.15373e-08
3.08393e-05
3.23607e-08
3.08406e-05
3.24588e-08
3.08418e-05
3.17615e-08
3.0843e-05
3.08196e-08
3.08445e-05
2.98585e-08
3.08461e-05
2.88404e-08
2.7161e-08
3.08476e-05
3.33032e-05
-1.72778e-10
3.33018e-05
1.8131e-09
3.33022e-05
8.23303e-09
3.33021e-05
1.22734e-08
3.33008e-05
1.3743e-08
3.33007e-05
1.75046e-08
3.33009e-05
2.13812e-08
3.33003e-05
2.32162e-08
3.32999e-05
2.51321e-08
3.33006e-05
2.78873e-08
3.33013e-05
2.97649e-08
3.33019e-05
3.03853e-08
3.33027e-05
3.07164e-08
3.3304e-05
3.1072e-08
3.33055e-05
3.10066e-08
3.33069e-05
3.03559e-08
3.33083e-05
2.94004e-08
3.33098e-05
2.83407e-08
3.33114e-05
2.72286e-08
2.56084e-08
3.3313e-05
3.59624e-05
5.29857e-10
3.59613e-05
2.94709e-09
3.59614e-05
8.16931e-09
3.59613e-05
1.23109e-08
3.59605e-05
1.45229e-08
3.59604e-05
1.76795e-08
3.59606e-05
2.10965e-08
3.59606e-05
2.32907e-08
3.59606e-05
2.51048e-08
3.59613e-05
2.72021e-08
3.59623e-05
2.87631e-08
3.59632e-05
2.94373e-08
3.59643e-05
2.9645e-08
3.59657e-05
2.96898e-08
3.59673e-05
2.94373e-08
3.59688e-05
2.87732e-08
3.59704e-05
2.7822e-08
3.5972e-05
2.67298e-08
3.59737e-05
2.55707e-08
2.39928e-08
3.59753e-05
3.88339e-05
1.04224e-09
3.88331e-05
3.8338e-09
3.88329e-05
8.28306e-09
3.8833e-05
1.22686e-08
3.88326e-05
1.48959e-08
3.88326e-05
1.77215e-08
3.8833e-05
2.06976e-08
3.88333e-05
2.2947e-08
3.88337e-05
2.4683e-08
3.88346e-05
2.63297e-08
3.88358e-05
2.75731e-08
3.88371e-05
2.81839e-08
3.88384e-05
2.83038e-08
3.88399e-05
2.81546e-08
3.88416e-05
2.77464e-08
3.88434e-05
2.70404e-08
3.88451e-05
2.60945e-08
3.88468e-05
2.5006e-08
3.88485e-05
2.38424e-08
2.23145e-08
3.88502e-05
4.19347e-05
1.40505e-09
4.1934e-05
4.47382e-09
4.19339e-05
8.4214e-09
4.1934e-05
1.21369e-08
4.1934e-05
1.49127e-08
4.19342e-05
1.75244e-08
4.19348e-05
2.01208e-08
4.19355e-05
2.22491e-08
4.19363e-05
2.38703e-08
4.19374e-05
2.52026e-08
4.19388e-05
2.61774e-08
4.19403e-05
2.66628e-08
4.19419e-05
2.6699e-08
4.19437e-05
2.643e-08
4.19455e-05
2.59144e-08
4.19474e-05
2.51679e-08
4.19492e-05
2.42294e-08
4.19511e-05
2.31652e-08
4.19529e-05
2.20289e-08
2.05682e-08
4.19546e-05
4.52829e-05
1.64257e-09
4.52825e-05
4.87417e-09
4.52825e-05
8.46957e-09
4.52827e-05
1.18737e-08
4.5283e-05
1.46061e-08
4.52835e-05
1.70283e-08
4.52844e-05
1.93025e-08
4.52854e-05
2.12233e-08
4.52866e-05
2.26841e-08
4.5288e-05
2.37873e-08
4.52896e-05
2.4543e-08
4.52914e-05
2.48893e-08
4.52932e-05
2.48434e-08
4.52952e-05
2.4499e-08
4.52972e-05
2.39218e-08
4.52992e-05
2.31539e-08
4.53012e-05
2.2233e-08
4.53031e-05
2.12086e-08
4.5305e-05
2.01227e-08
1.87487e-08
4.53069e-05
4.88985e-05
1.76917e-09
4.88983e-05
5.0412e-09
4.88984e-05
8.34577e-09
4.88989e-05
1.14243e-08
4.88995e-05
1.3987e-08
4.89003e-05
1.62013e-08
4.89014e-05
1.81906e-08
4.89028e-05
1.98718e-08
4.89043e-05
2.11444e-08
4.89061e-05
2.20654e-08
4.8908e-05
2.2643e-08
4.891e-05
2.28633e-08
4.89121e-05
2.27453e-08
4.89142e-05
2.23561e-08
4.89164e-05
2.17548e-08
4.89186e-05
2.09919e-08
4.89207e-05
2.0106e-08
4.89227e-05
1.91379e-08
4.89248e-05
1.81208e-08
1.68515e-08
4.89266e-05
5.28027e-05
1.79235e-09
5.28027e-05
4.97831e-09
5.28031e-05
7.99398e-09
5.28038e-05
1.07356e-08
5.28047e-05
1.30493e-08
5.28059e-05
1.50254e-08
5.28073e-05
1.67479e-08
5.2809e-05
1.8185e-08
5.28109e-05
1.92657e-08
5.2813e-05
2.0025e-08
5.28151e-05
2.04591e-08
5.28174e-05
2.05778e-08
5.28198e-05
2.04069e-08
5.28221e-05
1.99991e-08
5.28245e-05
1.94056e-08
5.28268e-05
1.86747e-08
5.2829e-05
1.78445e-08
5.28312e-05
1.69511e-08
5.28333e-05
1.60217e-08
1.48747e-08
5.28353e-05
5.70186e-05
1.7156e-09
5.70189e-05
4.6859e-09
5.70195e-05
7.37673e-09
5.70205e-05
9.76329e-09
5.70218e-05
1.17788e-08
5.70233e-05
1.34889e-08
5.70251e-05
1.49495e-08
5.70271e-05
1.61525e-08
5.70293e-05
1.70497e-08
5.70317e-05
1.76603e-08
5.70342e-05
1.79785e-08
5.70367e-05
1.80235e-08
5.70393e-05
1.78234e-08
5.70419e-05
1.74238e-08
5.70444e-05
1.6868e-08
5.70469e-05
1.61975e-08
5.70493e-05
1.54444e-08
5.70516e-05
1.46385e-08
5.70538e-05
1.38077e-08
1.28108e-08
5.70559e-05
6.15711e-05
1.54043e-09
6.15716e-05
4.1631e-09
6.15725e-05
6.47003e-09
6.15738e-05
8.47415e-09
6.15754e-05
1.01591e-08
6.15773e-05
1.15831e-08
6.15795e-05
1.27825e-08
6.15819e-05
1.37601e-08
6.15845e-05
1.4489e-08
6.15872e-05
1.49662e-08
6.15899e-05
1.51928e-08
6.15928e-05
1.51912e-08
6.15956e-05
1.49872e-08
6.15984e-05
1.46197e-08
6.16012e-05
1.41264e-08
6.16038e-05
1.35461e-08
6.16063e-05
1.29122e-08
6.16087e-05
1.22489e-08
6.1611e-05
1.15656e-08
1.06076e-08
6.16132e-05
6.64871e-05
1.27329e-09
6.64878e-05
3.40686e-09
6.6489e-05
5.26188e-09
6.64907e-05
6.85028e-09
6.64926e-05
8.18243e-09
6.64949e-05
9.30543e-09
6.64974e-05
1.02458e-08
6.65002e-05
1.10049e-08
6.65031e-05
1.15677e-08
6.65062e-05
1.19277e-08
6.65093e-05
1.20883e-08
6.65124e-05
1.20671e-08
6.65155e-05
1.18882e-08
6.65185e-05
1.15815e-08
6.65215e-05
1.11758e-08
6.65243e-05
1.06977e-08
6.65271e-05
1.01704e-08
6.65297e-05
9.6153e-09
6.65322e-05
9.05258e-09
8.41564e-09
6.65344e-05
7.17955e-05
9.24283e-10
7.17965e-05
2.44473e-09
7.1798e-05
3.76328e-09
7.17999e-05
4.90146e-09
7.18022e-05
5.86689e-09
7.18049e-05
6.68031e-09
7.18077e-05
7.35788e-09
7.18109e-05
7.90034e-09
7.18141e-05
8.30054e-09
7.18175e-05
8.55417e-09
7.18209e-05
8.66284e-09
7.18243e-05
8.6406e-09
7.18277e-05
8.50484e-09
7.1831e-05
8.28008e-09
7.18342e-05
7.9868e-09
7.18373e-05
7.64697e-09
7.18402e-05
7.2753e-09
7.18429e-05
6.88554e-09
7.18455e-05
6.48391e-09
6.13451e-09
7.18477e-05
7.75279e-05
7.75291e-05
7.75309e-05
7.75332e-05
7.7536e-05
7.7539e-05
7.75423e-05
7.75459e-05
7.75495e-05
7.75533e-05
7.75571e-05
7.75608e-05
7.75645e-05
7.75681e-05
7.75715e-05
7.75747e-05
7.75779e-05
7.75808e-05
7.75835e-05
7.75862e-05
3.7847e-06
2.51088e-08
3.75501e-06
2.96923e-08
3.7214e-06
3.36099e-08
3.68286e-06
3.8539e-08
3.63992e-06
4.29389e-08
3.59533e-06
4.45898e-08
3.5504e-06
4.49391e-08
3.50467e-06
4.57225e-08
3.4583e-06
4.63721e-08
3.41118e-06
4.71166e-08
3.36304e-06
4.81402e-08
3.31385e-06
4.91951e-08
3.26385e-06
4.9994e-08
3.21333e-06
5.05241e-08
3.16263e-06
5.06982e-08
3.11218e-06
5.0456e-08
3.06226e-06
4.99136e-08
3.01289e-06
4.93759e-08
2.96352e-06
4.937e-08
2.91345e-06
5.00642e-08
2.86231e-06
5.11468e-08
2.80985e-06
5.24515e-08
2.75609e-06
5.37655e-08
2.70151e-06
5.45804e-08
2.6467e-06
5.48048e-08
2.59207e-06
5.463e-08
2.5381e-06
5.39753e-08
2.4847e-06
5.3399e-08
2.43069e-06
5.40071e-08
2.37527e-06
5.54213e-08
2.31922e-06
5.60472e-08
2.26358e-06
5.56476e-08
2.20827e-06
5.53069e-08
2.15303e-06
5.5242e-08
2.09829e-06
5.47343e-08
2.04451e-06
5.37789e-08
1.99154e-06
5.2975e-08
1.93967e-06
5.1868e-08
1.89034e-06
4.93349e-08
1.84471e-06
4.56313e-08
1.80295e-06
4.17509e-08
1.76588e-06
3.70694e-08
1.73588e-06
3.00019e-08
1.71541e-06
2.04731e-08
1.70507e-06
1.03424e-08
1.70329e-06
1.77886e-09
1.70676e-06
-3.47186e-09
1.71243e-06
-5.66865e-09
1.71814e-06
-5.71377e-09
1.72295e-06
-4.80945e-09
1.72663e-06
-3.68233e-09
1.72933e-06
-2.69797e-09
1.73132e-06
-1.98359e-09
1.73284e-06
-1.52213e-09
1.73408e-06
-1.24653e-09
1.73517e-06
-1.08436e-09
1.73615e-06
-9.78375e-10
1.73704e-06
-8.92269e-10
1.73784e-06
-8.03448e-10
1.73855e-06
-7.04323e-10
1.73914e-06
-5.96517e-10
1.73963e-06
-4.86335e-10
1.74001e-06
-3.81476e-10
1.7403e-06
-2.88025e-10
1.74051e-06
-2.10554e-10
1.74066e-06
-1.50234e-10
1.74077e-06
-1.05934e-10
1.74084e-06
-7.51396e-11
1.7409e-06
-5.47859e-11
1.74094e-06
-4.18952e-11
1.74097e-06
-3.3958e-11
1.741e-06
-2.89742e-11
1.74103e-06
-2.56774e-11
1.74105e-06
-2.32838e-11
1.74107e-06
-2.1306e-11
1.74109e-06
-1.95717e-11
1.74111e-06
-1.79541e-11
1.74113e-06
-1.6424e-11
1.74114e-06
-1.4992e-11
1.74115e-06
-1.365e-11
1.74117e-06
-1.23954e-11
1.74118e-06
-1.12357e-11
1.74119e-06
-1.0189e-11
1.7412e-06
-9.23171e-12
1.74121e-06
-8.34884e-12
1.74121e-06
-7.52722e-12
1.74122e-06
-6.79392e-12
1.74123e-06
-6.15946e-12
1.74123e-06
-5.6002e-12
1.74124e-06
-5.05503e-12
1.74124e-06
-4.52841e-12
1.74125e-06
-4.05221e-12
1.74125e-06
-3.66288e-12
1.74125e-06
-3.34001e-12
1.74126e-06
-3.02189e-12
1.74126e-06
-2.70845e-12
1.74126e-06
-2.40089e-12
1.74126e-06
-2.15503e-12
1.74126e-06
-1.95259e-12
1.74127e-06
-1.75987e-12
1.74127e-06
-1.57471e-12
1.74127e-06
-1.39449e-12
1.74127e-06
-1.24034e-12
1.74127e-06
-1.12141e-12
1.74127e-06
-1.00712e-12
1.74127e-06
-8.86612e-13
1.74127e-06
-7.87404e-13
1.74128e-06
-6.83268e-13
1.74128e-06
-6.07762e-13
1.74128e-06
-5.44526e-13
1.74128e-06
-4.60191e-13
1.74128e-06
-4.00688e-13
1.74128e-06
-3.36022e-13
1.74128e-06
-2.9356e-13
1.74128e-06
-2.72894e-13
1.74128e-06
-2.38602e-13
1.74128e-06
-2.0059e-13
1.74128e-06
-1.50661e-13
1.74128e-06
-1.12113e-13
1.74128e-06
-9.56417e-14
1.74128e-06
-9.2787e-14
1.74128e-06
-8.51299e-14
1.74128e-06
-6.1054e-14
1.74128e-06
-3.13948e-14
1.74128e-06
-1.54459e-14
1.74128e-06
-1.31308e-14
1.74128e-06
-1.94941e-14
1.74128e-06
-1.31532e-14
1.74128e-06
6.37358e-15
1.74128e-06
2.17058e-14
1.74128e-06
2.75566e-14
1.74128e-06
2.03793e-14
1.74128e-06
1.45126e-14
1.74128e-06
1.60378e-14
1.74128e-06
2.35158e-14
1.74128e-06
2.91522e-14
1.74128e-06
2.57616e-14
1.74128e-06
2.70316e-14
1.74128e-06
2.68484e-14
1.74128e-06
3.12835e-14
1.74128e-06
3.88141e-14
1.74128e-06
3.37725e-14
1.74128e-06
3.10272e-14
1.74128e-06
2.43284e-14
1.74128e-06
2.14689e-14
1.74128e-06
2.012e-14
1.74128e-06
2.18869e-14
1.74128e-06
2.21355e-14
1.74128e-06
2.02261e-14
1.74128e-06
2.82991e-14
1.74128e-06
2.48443e-14
1.74128e-06
2.74407e-14
1.74128e-06
2.38527e-14
1.74128e-06
1.25667e-14
1.74128e-06
1.61646e-14
1.74128e-06
1.22271e-14
1.74128e-06
1.73775e-14
1.74128e-06
2.1548e-14
1.74128e-06
1.7564e-14
1.74128e-06
1.96465e-14
1.74128e-06
2.05927e-14
1.74128e-06
1.83024e-14
1.74128e-06
2.46582e-14
1.74128e-06
2.53964e-14
1.74128e-06
2.2931e-14
1.74128e-06
3.31679e-14
1.74128e-06
2.51515e-14
1.74128e-06
4.18934e-14
1.74128e-06
2.22593e-14
1.74128e-06
6.93778e-14
1.74128e-06
-7.23158e-15
1.74128e-06
1.57587e-13
1.74128e-06
-1.17365e-13
1.74128e-06
4.07183e-13
1.74128e-06
-4.83124e-13
1.74128e-06
1.08031e-12
1.74128e-06
-1.49717e-12
1.74128e-06
2.75791e-12
1.74128e-06
-3.92268e-12
1.74127e-06
6.4063e-12
1.74128e-06
-8.80031e-12
1.74127e-06
1.29352e-11
1.74129e-06
-1.64419e-11
1.74126e-06
2.14514e-11
1.74129e-06
-2.3862e-11
1.74126e-06
2.61822e-11
1.74128e-06
-2.19493e-11
1.74127e-06
1.56539e-11
1.74127e-06
1.30101e-12
1.74128e-06
-1.78229e-11
1.74124e-06
4.53e-11
1.7413e-06
-5.74319e-11
1.74122e-06
8.00108e-11
1.74127e-06
-5.51926e-11
1.7412e-06
7.08853e-11
1.74119e-06
1.39271e-11
1.74111e-06
7.36097e-11
1.74103e-06
7.9559e-11
1.74095e-06
8.26701e-11
6.81798e-10
4.13604e-06
1.93209e-08
4.15191e-06
1.38281e-08
4.1637e-06
2.18197e-08
4.16918e-06
3.30562e-08
4.17044e-06
4.16857e-08
4.16948e-06
4.55462e-08
4.1664e-06
4.80222e-08
4.16252e-06
4.96006e-08
4.15836e-06
5.05303e-08
4.15398e-06
5.14917e-08
4.14915e-06
5.29761e-08
4.14364e-06
5.47033e-08
4.1373e-06
5.63334e-08
4.13008e-06
5.77485e-08
4.12213e-06
5.86452e-08
4.11364e-06
5.89491e-08
4.10468e-06
5.88747e-08
4.09528e-06
5.877e-08
4.08538e-06
5.92718e-08
4.07477e-06
6.06784e-08
4.0633e-06
6.2607e-08
4.05097e-06
6.47886e-08
4.03769e-06
6.70413e-08
4.02352e-06
6.87561e-08
4.00857e-06
6.97544e-08
3.99286e-06
7.03379e-08
3.9765e-06
7.03293e-08
3.95966e-06
7.0247e-08
3.9421e-06
7.15688e-08
3.92354e-06
7.39727e-08
3.90412e-06
7.54676e-08
3.8841e-06
7.56741e-08
3.86348e-06
7.59268e-08
3.84211e-06
7.66085e-08
3.8202e-06
7.66483e-08
3.79814e-06
7.58321e-08
3.77587e-06
7.52505e-08
3.75337e-06
7.43693e-08
3.73134e-06
7.13571e-08
3.71031e-06
6.66677e-08
3.69038e-06
6.16767e-08
3.67212e-06
5.53308e-08
3.65646e-06
4.56601e-08
3.64436e-06
3.25774e-08
3.63634e-06
1.83626e-08
3.6318e-06
6.31641e-09
3.63005e-06
-1.72023e-09
3.62995e-06
-5.56676e-09
3.6309e-06
-6.67127e-09
3.63246e-06
-6.36958e-09
3.63437e-06
-5.58929e-09
3.63651e-06
-4.83336e-09
3.63887e-06
-4.34243e-09
3.64152e-06
-4.17677e-09
3.6446e-06
-4.32213e-09
3.64822e-06
-4.70916e-09
3.65246e-06
-5.21899e-09
3.65727e-06
-5.70131e-09
3.66248e-06
-6.01161e-09
3.66783e-06
-6.05428e-09
3.67303e-06
-5.79573e-09
3.67781e-06
-5.26459e-09
3.68196e-06
-4.53738e-09
3.68539e-06
-3.71361e-09
3.68807e-06
-2.8906e-09
3.69006e-06
-2.1434e-09
3.69147e-06
-1.51704e-09
3.69242e-06
-1.02739e-09
3.69304e-06
-6.67939e-10
3.69341e-06
-4.18786e-10
3.69364e-06
-2.54991e-10
3.69376e-06
-1.52184e-10
3.69382e-06
-9.02854e-11
3.69385e-06
-5.42038e-11
3.69387e-06
-3.34555e-11
3.69387e-06
-2.15705e-11
3.69386e-06
-1.45259e-11
3.69386e-06
-1.00925e-11
3.69385e-06
-7.07927e-12
3.69384e-06
-4.84235e-12
3.69383e-06
-3.07187e-12
3.69382e-06
-1.61233e-12
3.69381e-06
-4.26015e-13
3.6938e-06
5.81464e-13
3.69379e-06
1.42463e-12
3.69378e-06
2.15332e-12
3.69377e-06
2.74307e-12
3.69376e-06
3.17578e-12
3.69376e-06
3.50285e-12
3.69375e-06
3.79023e-12
3.69374e-06
4.05633e-12
3.69373e-06
4.26687e-12
3.69372e-06
4.35e-12
3.69371e-06
4.37313e-12
3.69371e-06
4.37225e-12
3.6937e-06
4.38441e-12
3.69369e-06
4.4107e-12
3.69369e-06
4.33881e-12
3.69368e-06
4.25584e-12
3.69367e-06
4.14438e-12
3.69367e-06
4.04769e-12
3.69366e-06
3.96381e-12
3.69366e-06
3.84109e-12
3.69365e-06
3.69888e-12
3.69365e-06
3.55636e-12
3.69364e-06
3.43574e-12
3.69364e-06
3.3043e-12
3.69364e-06
3.19098e-12
3.69363e-06
3.04299e-12
3.69363e-06
2.89833e-12
3.69363e-06
2.78942e-12
3.69362e-06
2.65467e-12
3.69362e-06
2.54739e-12
3.69362e-06
2.41157e-12
3.69361e-06
2.26401e-12
3.69361e-06
2.14172e-12
3.69361e-06
2.03153e-12
3.69361e-06
1.94862e-12
3.69361e-06
1.85101e-12
3.6936e-06
1.73992e-12
3.6936e-06
1.61473e-12
3.6936e-06
1.50458e-12
3.6936e-06
1.42955e-12
3.6936e-06
1.36018e-12
3.6936e-06
1.2821e-12
3.6936e-06
1.19384e-12
3.69359e-06
1.09357e-12
3.69359e-06
1.02456e-12
3.69359e-06
9.74112e-13
3.69359e-06
9.21291e-13
3.69359e-06
8.62167e-13
3.69359e-06
7.87225e-13
3.69359e-06
7.19395e-13
3.69359e-06
6.66406e-13
3.69359e-06
6.26545e-13
3.69359e-06
5.85869e-13
3.69359e-06
5.38669e-13
3.69359e-06
5.00443e-13
3.69359e-06
4.59192e-13
3.69359e-06
4.31523e-13
3.69359e-06
4.07186e-13
3.69359e-06
3.70476e-13
3.69358e-06
3.41956e-13
3.69358e-06
3.05437e-13
3.69358e-06
2.79258e-13
3.69358e-06
2.52245e-13
3.69358e-06
2.35956e-13
3.69358e-06
2.1649e-13
3.69358e-06
1.98304e-13
3.69358e-06
1.95264e-13
3.69358e-06
1.73461e-13
3.69358e-06
1.66826e-13
3.69358e-06
1.47436e-13
3.69358e-06
1.23343e-13
3.69358e-06
1.19009e-13
3.69358e-06
1.03454e-13
3.69358e-06
1.04716e-13
3.69358e-06
1.00131e-13
3.69358e-06
9.12025e-14
3.69358e-06
8.80773e-14
3.69358e-06
8.57894e-14
3.69358e-06
7.79437e-14
3.69358e-06
8.333e-14
3.69358e-06
8.05475e-14
3.69358e-06
7.53786e-14
3.69358e-06
8.92307e-14
3.69358e-06
7.89272e-14
3.69358e-06
9.75e-14
3.69358e-06
8.25164e-14
3.69358e-06
1.25114e-13
3.69358e-06
6.84955e-14
3.69358e-06
2.14764e-13
3.69358e-06
-3.23841e-15
3.69358e-06
4.44862e-13
3.69358e-06
-2.81598e-13
3.69358e-06
1.03666e-12
3.69358e-06
-1.09242e-12
3.69358e-06
2.50893e-12
3.69358e-06
-3.13535e-12
3.69358e-06
5.83428e-12
3.69358e-06
-7.60135e-12
3.69358e-06
1.24028e-11
3.69358e-06
-1.57563e-11
3.69358e-06
2.29379e-11
3.69358e-06
-2.67096e-11
3.69357e-06
3.36362e-11
3.69358e-06
-3.14178e-11
3.69357e-06
2.88682e-11
3.69358e-06
-6.52139e-12
3.69358e-06
-1.72487e-11
3.69355e-06
6.80088e-11
3.69359e-06
-9.64167e-11
3.69353e-06
1.45332e-10
3.69358e-06
-1.0375e-10
3.69353e-06
1.20442e-10
3.6935e-06
4.0521e-11
3.69349e-06
8.36351e-11
3.69339e-06
1.77787e-10
3.69336e-06
1.13796e-10
9.36117e-10
4.47836e-06
9.86312e-09
4.48959e-06
2.60137e-09
4.49615e-06
1.52625e-08
4.50093e-06
2.827e-08
4.50635e-06
3.62717e-08
4.50947e-06
4.24214e-08
4.51026e-06
4.72347e-08
4.51007e-06
4.97928e-08
4.50994e-06
5.06626e-08
4.5102e-06
5.12221e-08
4.51105e-06
5.21356e-08
4.51221e-06
5.35422e-08
4.51324e-06
5.53034e-08
4.5139e-06
5.70841e-08
4.5142e-06
5.83454e-08
4.51413e-06
5.90167e-08
4.51373e-06
5.92783e-08
4.5131e-06
5.94037e-08
4.51237e-06
5.9995e-08
4.51162e-06
6.14341e-08
4.51084e-06
6.33799e-08
4.51012e-06
6.55093e-08
4.50942e-06
6.77417e-08
4.50856e-06