/*--------------------------------*- C++ -*----------------------------------*\
| =========                 |                                                 |
| \\      /  F ield         | OpenFOAM: The Open Source CFD Toolbox           |
|  \\    /   O peration     | Version:  v2012                                 |
|   \\  /    A nd           | Website:  www.openfoam.com                      |
|    \\/     M anipulation  |                                                 |
\*---------------------------------------------------------------------------*/
FoamFile
{
    version     2.0;
    format      ascii;
    class       volVectorField;
    location    "0.1";
    object      U;
}
// * * * * * * * * * * * * * * * * * * * * * * * * * * * * * * * * * * * * * //

dimensions      [0 1 -1 0 0 0 0];


internalField   nonuniform List<vector> 
8800
(
(0.985895 -0.00214358 0)
(1.03001 0.00303236 0)
(0.963825 -0.000914896 0)
(1.03707 -0.0011235 0)
(0.971536 0.000835863 0)
(1.024 0.00159786 0)
(0.974387 -0.00166721 0)
(1.02551 -0.00108295 0)
(0.978443 0.00015603 0)
(1.02081 0.00155417 0)
(0.97794 0.000564707 0)
(1.01676 -0.000482518 0)
(0.981721 -0.00141292 0)
(1.01628 -0.000573894 0)
(0.983883 -0.000605808 0)
(1.01224 0.000988465 0)
(0.984571 0.000996747 0)
(1.01016 0.00125916 0)
(0.986262 0.0011997 0)
(1.01013 0.000740078 0)
(0.994766 -0.00257384 0)
(1.0097 0.00363395 0)
(0.99024 -0.00107443 0)
(1.01141 -0.0014119 0)
(0.991658 0.00130727 0)
(1.00658 0.00159001 0)
(0.995774 -0.00183959 0)
(1.0043 -0.00126301 0)
(0.995512 0.000415866 0)
(1.00333 0.00166514 0)
(0.996983 0.000686061 0)
(1.00156 -0.000617566 0)
(0.99742 -0.00148635 0)
(1.00026 -0.000644293 0)
(0.996784 -0.00040798 0)
(0.998196 0.00120028 0)
(0.997289 0.00147093 0)
(0.998931 0.00169537 0)
(0.998596 0.00220445 0)
(1.00067 0.00200703 0)
(0.99872 -0.00236783 0)
(1.00035 0.00326485 0)
(1.00004 -0.0008748 0)
(1.00138 -0.00137101 0)
(0.997134 0.00125647 0)
(1.002 0.00137432 0)
(1.00081 -0.00154583 0)
(0.998722 -0.00119476 0)
(0.997968 0.000438317 0)
(1 0.00138888 0)
(0.999852 0.000696652 0)
(0.999768 -0.000511102 0)
(0.998845 -0.00126792 0)
(0.998072 -0.000504573 0)
(0.996999 -0.000334659 0)
(0.996717 0.00140775 0)
(0.997578 0.00119544 0)
(0.998587 0.00255067 0)
(0.999135 0.00161621 0)
(1.00069 0.00407397 0)
(0.999533 -0.00236583 0)
(0.998451 0.00317901 0)
(1.00153 -0.000771519 0)
(0.999699 -0.00143783 0)
(0.997716 0.00129657 0)
(1.00137 0.00129931 0)
(1.00124 -0.0014812 0)
(0.998085 -0.00118447 0)
(0.998049 0.00047691 0)
(0.99965 0.0012954 0)
(0.999942 0.000749253 0)
(0.999575 -0.000569565 0)
(0.998883 -0.00104349 0)
(0.997865 -0.000587145 0)
(0.996974 8.52975e-05 0)
(0.996601 0.00105001 0)
(0.997625 0.00203774 0)
(0.99851 0.00200386 0)
(0.999386 0.00242791 0)
(1.00062 0.00223064 0)
(0.999659 -0.00221099 0)
(0.998251 0.00291727 0)
(1.00156 -0.000631057 0)
(0.999606 -0.00140838 0)
(0.997797 0.00130985 0)
(1.00122 0.00107262 0)
(1.00119 -0.0012512 0)
(0.998121 -0.00109032 0)
(0.99812 0.000500707 0)
(0.999618 0.0011043 0)
(0.999829 0.000700603 0)
(0.999495 -0.000480844 0)
(0.998862 -0.000766061 0)
(0.99797 -0.000578628 0)
(0.997016 0.000477695 0)
(0.996802 0.000755626 0)
(0.997606 0.00250184 0)
(0.998605 0.00153324 0)
(0.999172 0.00303833 0)
(1.00048 0.000574139 0)
(0.999701 -0.00211338 0)
(0.998276 0.00270501 0)
(1.00144 -0.000465224 0)
(0.999664 -0.00143076 0)
(0.997885 0.00127666 0)
(1.00111 0.000987462 0)
(1.0011 -0.00111187 0)
(0.998196 -0.00104847 0)
(0.998231 0.000491709 0)
(0.999628 0.000994989 0)
(0.999745 0.000702097 0)
(0.999381 -0.000370549 0)
(0.998867 -0.000701286 0)
(0.998041 -0.000325876 0)
(0.997166 0.000304842 0)
(0.996959 0.00134914 0)
(0.997744 0.00187032 0)
(0.998635 0.00249699 0)
(0.999115 0.0022005 0)
(1.00055 0.00247346 0)
(0.999736 -0.00198817 0)
(0.998325 0.00248489 0)
(1.0013 -0.000331621 0)
(0.999741 -0.00144047 0)
(0.997978 0.00131566 0)
(1.001 0.000816662 0)
(1.00101 -0.000984014 0)
(0.998291 -0.000936634 0)
(0.998341 0.000507435 0)
(0.999634 0.000864966 0)
(0.999642 0.000677751 0)
(0.999295 -0.000358576 0)
(0.998876 -0.00043357 0)
(0.998143 -0.000278787 0)
(0.997333 0.000569235 0)
(0.997112 0.00136657 0)
(0.99786 0.00199443 0)
(0.998671 0.00237835 0)
(0.999175 0.0025098 0)
(1.00044 0.00284163 0)
(0.999771 -0.00185853 0)
(0.99838 0.00223829 0)
(1.00116 -0.000170953 0)
(0.999813 -0.00143384 0)
(0.99807 0.00127456 0)
(1.00089 0.000710778 0)
(1.00093 -0.000838955 0)
(0.998368 -0.000830836 0)
(0.998446 0.000439753 0)
(0.999646 0.000790482 0)
(0.999566 0.000626675 0)
(0.999212 -0.000181982 0)
(0.998883 -0.000354611 0)
(0.998231 -3.09331e-05 0)
(0.997499 0.00054072 0)
(0.99727 0.0015164 0)
(0.997986 0.00198193 0)
(0.998768 0.00243873 0)
(0.99925 0.00264931 0)
(1.00029 0.00281077 0)
(0.999804 -0.00172922 0)
(0.998443 0.00200364 0)
(1.00102 -2.04731e-05 0)
(0.999885 -0.00144759 0)
(0.998168 0.00127258 0)
(1.00078 0.000617003 0)
(1.00085 -0.000770073 0)
(0.998452 -0.000705175 0)
(0.998549 0.000430204 0)
(0.999657 0.000713 0)
(0.999486 0.000610057 0)
(0.999133 -0.000123754 0)
(0.998908 -0.000205272 0)
(0.998326 0.000127865 0)
(0.997676 0.000667848 0)
(0.99745 0.00150952 0)
(0.998098 0.00214354 0)
(0.998854 0.00231521 0)
(0.999286 0.00267694 0)
(1.00013 0.00247945 0)
(0.999836 -0.0015922 0)
(0.998513 0.001761 0)
(1.00088 0.000120308 0)
(0.999956 -0.00142744 0)
(0.998267 0.00123195 0)
(1.00066 0.00054024 0)
(1.00078 -0.000697315 0)
(0.99853 -0.000543077 0)
(0.998641 0.000365142 0)
(0.999671 0.000639128 0)
(0.999421 0.000582801 0)
(0.999068 1.28786e-05 0)
(0.998936 -8.30643e-05 0)
(0.998423 0.000302441 0)
(0.997826 0.00077694 0)
(0.997648 0.00146127 0)
(0.998205 0.00218645 0)
(0.998931 0.00226228 0)
(0.999294 0.00258085 0)
(0.999995 0.00230242 0)
(0.999866 -0.00145381 0)
(0.998591 0.00151946 0)
(1.00074 0.000259393 0)
(1.00002 -0.0014044 0)
(0.99837 0.00117023 0)
(1.00055 0.00051349 0)
(1.00072 -0.000663865 0)
(0.998605 -0.000399768 0)
(0.998725 0.000336091 0)
(0.999691 0.000570166 0)
(0.999368 0.000580204 0)
(0.999004 0.000123258 0)
(0.998974 8.1129e-06 0)
(0.998528 0.000461391 0)
(0.997972 0.000900123 0)
(0.997841 0.00147585 0)
(0.998332 0.00211262 0)
(0.998986 0.00232243 0)
(0.99929 0.0024048 0)
(0.999887 0.00231847 0)
(0.999894 -0.00131399 0)
(0.998677 0.00128486 0)
(1.0006 0.000379641 0)
(1.00008 -0.00136144 0)
(0.99848 0.00109201 0)
(1.00042 0.000506549 0)
(1.00066 -0.00065075 0)
(0.998684 -0.000252334 0)
(0.998796 0.000328731 0)
(0.999713 0.000483213 0)
(0.999328 0.000581009 0)
(0.998949 0.000245764 0)
(0.999019 0.00011376 0)
(0.998648 0.000564348 0)
(0.998105 0.00104514 0)
(0.99801 0.00147108 0)
(0.998474 0.00200133 0)
(0.999032 0.0022988 0)
(0.999289 0.00234346 0)
(0.999801 0.00230201 0)
(0.999919 -0.00117386 0)
(0.99877 0.00105775 0)
(1.00047 0.000482757 0)
(1.00013 -0.00129409 0)
(0.998595 0.000983257 0)
(1.0003 0.000526838 0)
(1.00061 -0.000637355 0)
(0.998766 -0.00013051 0)
(0.998851 0.000347388 0)
(0.999738 0.000398898 0)
(0.999313 0.00058178 0)
(0.998897 0.00038526 0)
(0.999059 0.000206991 0)
(0.998782 0.000626925 0)
(0.99824 0.00115675 0)
(0.99815 0.0015138 0)
(0.998619 0.00188813 0)
(0.999113 0.00221568 0)
(0.999289 0.0023554 0)
(0.999704 0.00225926 0)
(0.999942 -0.00103583 0)
(0.99887 0.000844238 0)
(1.00034 0.000563486 0)
(1.00017 -0.00120453 0)
(0.998717 0.00085494 0)
(1.00018 0.000567344 0)
(1.00056 -0.00062446 0)
(0.998858 -3.99704e-05 0)
(0.998892 0.000401545 0)
(0.999761 0.000326754 0)
(0.999321 0.000563268 0)
(0.998854 0.000521924 0)
(0.999089 0.000317497 0)
(0.998928 0.000661388 0)
(0.998387 0.00123314 0)
(0.998263 0.00157957 0)
(0.998738 0.0018126 0)
(0.999221 0.00207558 0)
(0.999304 0.00231989 0)
(0.99959 0.00223815 0)
(0.999961 -0.000901404 0)
(0.998975 0.000647597 0)
(1.00022 0.000618901 0)
(1.0002 -0.0010904 0)
(0.998846 0.000711178 0)
(1.00006 0.000613211 0)
(1.00052 -0.000591779 0)
(0.99896 1.03293e-05 0)
(0.99892 0.000472928 0)
(0.999775 0.000278291 0)
(0.999357 0.000521499 0)
(0.998827 0.00065499 0)
(0.999103 0.000447711 0)
(0.999074 0.000679079 0)
(0.998553 0.00125347 0)
(0.998365 0.00163965 0)
(0.99882 0.00178761 0)
(0.999338 0.00192758 0)
(0.999362 0.00222791 0)
(0.999497 0.00223896 0)
(0.999977 -0.000772648 0)
(0.999083 0.000471816 0)
(1.00011 0.000646642 0)
(1.00021 -0.000955652 0)
(0.99898 0.000559893 0)
(0.999943 0.000655923 0)
(1.00046 -0.000532421 0)
(0.999075 2.3062e-05 0)
(0.998943 0.000549447 0)
(0.999773 0.000269923 0)
(0.999417 0.000463079 0)
(0.998826 0.000756589 0)
(0.999099 0.000595958 0)
(0.999207 0.000700441 0)
(0.998741 0.00123346 0)
(0.998475 0.00166521 0)
(0.998862 0.00181457 0)
(0.999434 0.00181419 0)
(0.999461 0.00209056 0)
(0.999452 0.00221231 0)
(0.99999 -0.000651572 0)
(0.999193 0.000320133 0)
(1.00002 0.000646899 0)
(1.00021 -0.000805405 0)
(0.999117 0.000412221 0)
(0.999841 0.000683678 0)
(1.0004 -0.000442829 0)
(0.999199 1.29437e-05 0)
(0.998969 0.000612863 0)
(0.999752 0.000304664 0)
(0.999495 0.000404534 0)
(0.99886 0.000816381 0)
(0.999084 0.000752663 0)
(0.999313 0.000742641 0)
(0.998939 0.00118918 0)
(0.998614 0.00164368 0)
(0.998885 0.00185007 0)
(0.999483 0.00176498 0)
(0.999583 0.00193585 0)
(0.999471 0.00214728 0)
(0.999999 -0.000539656 0)
(0.999302 0.000194008 0)
(0.999939 0.000622415 0)
(1.0002 -0.000647159 0)
(0.999253 0.000277975 0)
(0.999757 0.000686958 0)
(1.00033 -0.000326648 0)
(0.999327 -6.86591e-06 0)
(0.999006 0.000649371 0)
(0.999713 0.000375836 0)
(0.999576 0.000364008 0)
(0.998934 0.000827549 0)
(0.999068 0.000893616 0)
(0.999384 0.000810629 0)
(0.999131 0.00114292 0)
(0.998782 0.00158422 0)
(0.998916 0.00185403 0)
(0.999484 0.0017747 0)
(0.999693 0.00181483 0)
(0.999551 0.00204445 0)
(1.00001 -0.000438614 0)
(0.999408 9.50001e-05 0)
(0.999879 0.000576142 0)
(1.00017 -0.000488704 0)
(0.999383 0.000166415 0)
(0.999694 0.000664406 0)
(1.00024 -0.000194157 0)
(0.999451 -2.21075e-05 0)
(0.999061 0.000651351 0)
(0.999662 0.000467127 0)
(0.999647 0.000355502 0)
(0.999043 0.00080045 0)
(0.99907 0.000998246 0)
(0.999422 0.000901361 0)
(0.9993 0.00111255 0)
(0.998971 0.00150393 0)
(0.998981 0.00181574 0)
(0.999459 0.00180396 0)
(0.999762 0.00174916 0)
(0.999664 0.00192879 0)
(1.00001 -0.000349358 0)
(0.999508 2.17957e-05 0)
(0.999836 0.000514299 0)
(1.00014 -0.000339129 0)
(0.999503 8.44602e-05 0)
(0.999656 0.000617027 0)
(1.00015 -5.91754e-05 0)
(0.999564 -2.04771e-05 0)
(0.999139 0.000621785 0)
(0.999609 0.00055732 0)
(0.999697 0.000386467 0)
(0.999178 0.000758305 0)
(0.999101 0.00105519 0)
(0.999437 0.000996933 0)
(0.999435 0.00110645 0)
(0.999165 0.00142394 0)
(0.999087 0.00174114 0)
(0.999436 0.00181505 0)
(0.999785 0.00173 0)
(0.99977 0.00183625 0)
(1.00001 -0.000272162 0)
(0.999599 -2.80087e-05 0)
(0.999811 0.000442782 0)
(1.0001 -0.000205482 0)
(0.999608 3.36495e-05 0)
(0.999641 0.000553653 0)
(1.00007 6.59124e-05 0)
(0.999658 5.54377e-06 0)
(0.999235 0.000574521 0)
(0.999568 0.000628872 0)
(0.999725 0.000449676 0)
(0.999319 0.000721266 0)
(0.999168 0.00106481 0)
(0.999445 0.00107705 0)
(0.999532 0.00112357 0)
(0.999345 0.00136075 0)
(0.999226 0.00164752 0)
(0.999443 0.00179134 0)
(0.99978 0.00173137 0)
(0.999849 0.001777 0)
(1.00001 -0.000207262 0)
(0.99968 -5.63734e-05 0)
(0.999802 0.000368664 0)
(1.00005 -9.34398e-05 0)
(0.999696 1.34663e-05 0)
(0.999648 0.000482365 0)
(0.999987 0.000173345 0)
(0.99973 5.82799e-05 0)
(0.999344 0.000524968 0)
(0.999548 0.000672009 0)
(0.999734 0.000528653 0)
(0.999452 0.000703262 0)
(0.999265 0.00104157 0)
(0.999462 0.00112839 0)
(0.9996 0.00115229 0)
(0.999497 0.00131929 0)
(0.99938 0.00155534 0)
(0.999491 0.00173359 0)
(0.999772 0.00172622 0)
(0.999899 0.00173822 0)
(1.00001 -0.00015388 0)
(0.999751 -6.71127e-05 0)
(0.999805 0.00029852 0)
(1.00001 -5.44929e-06 0)
(0.999766 1.82279e-05 0)
(0.999673 0.000413132 0)
(0.999923 0.000255335 0)
(0.99978 0.000128949 0)
(0.999455 0.000484864 0)
(0.999553 0.000686755 0)
(0.999734 0.000605493 0)
(0.999566 0.00070804 0)
(0.999382 0.00100371 0)
(0.9995 0.00114679 0)
(0.99965 0.00117774 0)
(0.99962 0.00129489 0)
(0.999532 0.00147849 0)
(0.999574 0.00165577 0)
(0.999781 0.00169953 0)
(0.999929 0.00170585 0)
(1.00001 -0.000110968 0)
(0.999809 -6.48575e-05 0)
(0.999819 0.000236538 0)
(0.999981 5.94178e-05 0)
(0.999818 4.06455e-05 0)
(0.999709 0.000355022 0)
(0.999878 0.000308993 0)
(0.999812 0.00020372 0)
(0.99956 0.000460613 0)
(0.999584 0.000680946 0)
(0.999735 0.000666937 0)
(0.999657 0.000730006 0)
(0.999506 0.000966512 0)
(0.99956 0.00113707 0)
(0.999695 0.00119104 0)
(0.999717 0.0012785 0)
(0.999668 0.00141849 0)
(0.999678 0.0015735 0)
(0.999815 0.00165065 0)
(0.999954 0.00167028 0)
(1.00001 -7.73138e-05 0)
(0.999857 -5.38996e-05 0)
(0.999838 0.000186152 0)
(0.999956 0.00010335 0)
(0.999856 7.2576e-05 0)
(0.999751 0.000311398 0)
(0.999853 0.000339513 0)
(0.999834 0.000273263 0)
(0.999653 0.000453405 0)
(0.999634 0.000664818 0)
(0.999746 0.000707127 0)
(0.999728 0.000758466 0)
(0.999623 0.000938193 0)
(0.999639 0.0011092 0)
(0.999745 0.00118762 0)
(0.999796 0.00126173 0)
(0.999784 0.00136994 0)
(0.999787 0.00149685 0)
(0.999874 0.00158713 0)
(0.99999 0.00162478 0)
(1 -5.13678e-05 0)
(0.999894 -3.80958e-05 0)
(0.999861 0.00014829 0)
(0.99994 0.000130517 0)
(0.999883 0.000107122 0)
(0.999793 0.000283431 0)
(0.999846 0.000354097 0)
(0.99985 0.000330989 0)
(0.999732 0.000459325 0)
(0.999696 0.000646338 0)
(0.999772 0.000726691 0)
(0.999787 0.000782965 0)
(0.999728 0.000919308 0)
(0.999728 0.00107364 0)
(0.999805 0.0011677 0)
(0.999866 0.0012391 0)
(0.999883 0.00132657 0)
(0.999893 0.00142844 0)
(0.99995 0.00151711 0)
(1.00004 0.00156778 0)
(1 -3.16938e-05 0)
(0.999923 -2.03596e-05 0)
(0.999885 0.000122365 0)
(0.999933 0.000145819 0)
(0.999903 0.000139287 0)
(0.999834 0.00026915 0)
(0.999855 0.000358974 0)
(0.999868 0.00037388 0)
(0.999798 0.00047218 0)
(0.999763 0.000630009 0)
(0.99981 0.000729937 0)
(0.99984 0.000796949 0)
(0.999819 0.000905262 0)
(0.999819 0.00103676 0)
(0.999874 0.0011352 0)
(0.999934 0.00120781 0)
(0.999968 0.00128301 0)
(0.99999 0.00136581 0)
(1.00003 0.00144544 0)
(1.0001 0.00150142 0)
(1 -1.69816e-05 0)
(0.999945 -2.6657e-06 0)
(0.999908 0.000106758 0)
(0.999933 0.00015352 0)
(0.999919 0.000165965 0)
(0.99987 0.000264814 0)
(0.999874 0.000358806 0)
(0.999888 0.000402077 0)
(0.999854 0.00048572 0)
(0.999829 0.000616842 0)
(0.999859 0.000722044 0)
(0.999894 0.00079836 0)
(0.999898 0.000890395 0)
(0.999907 0.00100025 0)
(0.999949 0.00109456 0)
(1 0.0011675 0)
(1.00005 0.00123547 0)
(1.00008 0.00130491 0)
(1.00012 0.00137354 0)
(1.00017 0.00142864 0)
(1 -5.77595e-06 0)
(0.999961 1.33972e-05 0)
(0.999929 9.90557e-05 0)
(0.999939 0.000156917 0)
(0.999934 0.000186095 0)
(0.999903 0.000266156 0)
(0.999901 0.00035645 0)
(0.999914 0.000417591 0)
(0.999903 0.00049534 0)
(0.999892 0.000605382 0)
(0.999914 0.000706991 0)
(0.999948 0.000787959 0)
(0.999969 0.00087072 0)
(0.999988 0.000963186 0)
(1.00002 0.00104884 0)
(1.00007 0.00111938 0)
(1.00012 0.00118211 0)
(1.00016 0.00124225 0)
(1.0002 0.00130078 0)
(1.00025 0.00135144 0)
(1 2.31504e-06 0)
(0.999973 2.67736e-05 0)
(0.999947 9.66934e-05 0)
(0.99995 0.00015815 0)
(0.999949 0.000199725 0)
(0.999933 0.000269304 0)
(0.999931 0.000352913 0)
(0.999944 0.000422891 0)
(0.999948 0.000498372 0)
(0.99995 0.000593101 0)
(0.999971 0.000686883 0)
(1 0.000767604 0)
(1.00003 0.000844168 0)
(1.00006 0.000923618 0)
(1.0001 0.000999306 0)
(1.00014 0.00106489 0)
(1.00019 0.0011226 0)
(1.00023 0.00117571 0)
(1.00027 0.00122585 0)
(1.00032 0.00127073 0)
(1 8.0278e-06 0)
(0.999981 3.74985e-05 0)
(0.999963 9.73663e-05 0)
(0.999963 0.000158239 0)
(0.999965 0.000207438 0)
(0.99996 0.000271333 0)
(0.999963 0.000347837 0)
(0.999977 0.000420129 0)
(0.99999 0.000493769 0)
(1 0.000577538 0)
(1.00003 0.000662247 0)
(1.00006 0.000739071 0)
(1.0001 0.000810093 0)
(1.00013 0.0008797 0)
(1.00017 0.000945876 0)
(1.00021 0.00100504 0)
(1.00026 0.00105728 0)
(1.0003 0.00110439 0)
(1.00034 0.00114764 0)
(1.00039 0.00118667 0)
(1 1.23526e-05 0)
(0.999988 4.5685e-05 0)
(0.999977 9.91073e-05 0)
(0.999977 0.000157328 0)
(0.999982 0.000209963 0)
(0.999986 0.000270307 0)
(0.999994 0.000340231 0)
(1.00001 0.000410708 0)
(1.00003 0.000481482 0)
(1.00005 0.000556863 0)
(1.00008 0.000632693 0)
(1.00012 0.000703497 0)
(1.00015 0.000768632 0)
(1.00019 0.00083022 0)
(1.00023 0.000887922 0)
(1.00027 0.000940186 0)
(1.00032 0.000986618 0)
(1.00036 0.00102811 0)
(1.0004 0.00106547 0)
(1.00045 0.00109904 0)
(1 1.52842e-05 0)
(0.999994 5.12125e-05 0)
(0.999988 0.000100337 0)
(0.999991 0.000154992 0)
(1 0.00020785 0)
(1.00001 0.000265061 0)
(1.00002 0.000328992 0)
(1.00005 0.000395276 0)
(1.00007 0.000461849 0)
(1.0001 0.000530001 0)
(1.00013 0.000597568 0)
(1.00017 0.000661392 0)
(1.00021 0.000720141 0)
(1.00025 0.000774584 0)
(1.00029 0.00082478 0)
(1.00033 0.000870287 0)
(1.00038 0.00091083 0)
(1.00042 0.000946901 0)
(1.00046 0.000979002 0)
(1.0005 0.00100761 0)
(1 1.70752e-05 0)
(0.999998 5.42124e-05 0)
(0.999998 9.99566e-05 0)
(1 0.000150569 0)
(1.00002 0.00020136 0)
(1.00003 0.000254953 0)
(1.00005 0.000313152 0)
(1.00008 0.000373947 0)
(1.00011 0.000435159 0)
(1.00014 0.00049643 0)
(1.00018 0.000556267 0)
(1.00022 0.000612835 0)
(1.00026 0.000664902 0)
(1.0003 0.000712603 0)
(1.00034 0.000756007 0)
(1.00039 0.000795148 0)
(1.00043 0.000829981 0)
(1.00047 0.00086086 0)
(1.00051 0.000888134 0)
(1.00055 0.000912247 0)
(1 1.7808e-05 0)
(1 5.47165e-05 0)
(1.00001 9.71654e-05 0)
(1.00002 0.000143359 0)
(1.00003 0.000190495 0)
(1.00005 0.000239676 0)
(1.00008 0.000292025 0)
(1.00011 0.000346599 0)
(1.00014 0.000401557 0)
(1.00018 0.00045589 0)
(1.00022 0.00050831 0)
(1.00026 0.000557655 0)
(1.0003 0.000602974 0)
(1.00035 0.000644189 0)
(1.00039 0.000681316 0)
(1.00043 0.000714556 0)
(1.00048 0.000744009 0)
(1.00052 0.000770013 0)
(1.00056 0.000792847 0)
(1.0006 0.000812905 0)
(1 1.75313e-05 0)
(1 5.27417e-05 0)
(1.00001 9.14068e-05 0)
(1.00003 0.000132685 0)
(1.00005 0.000175014 0)
(1.00007 0.00021895 0)
(1.0001 0.000265126 0)
(1.00014 0.000312978 0)
(1.00017 0.000361084 0)
(1.00021 0.000408271 0)
(1.00026 0.000453425 0)
(1.0003 0.000495657 0)
(1.00034 0.00053432 0)
(1.00039 0.00056927 0)
(1.00043 0.000600536 0)
(1.00048 0.000628334 0)
(1.00052 0.000652841 0)
(1.00056 0.000674357 0)
(1.0006 0.000693136 0)
(1.00064 0.000709549 0)
(1 1.62665e-05 0)
(1.00001 4.82451e-05 0)
(1.00002 8.22836e-05 0)
(1.00004 0.000117954 0)
(1.00006 0.000154456 0)
(1.00009 0.000192241 0)
(1.00013 0.000231613 0)
(1.00016 0.000272218 0)
(1.0002 0.000312849 0)
(1.00024 0.000352573 0)
(1.00029 0.000390318 0)
(1.00033 0.000425494 0)
(1.00038 0.000457545 0)
(1.00042 0.000486411 0)
(1.00047 0.000512088 0)
(1.00051 0.000534813 0)
(1.00055 0.000554792 0)
(1.00059 0.000572315 0)
(1.00063 0.000587618 0)
(1.00067 0.00060095 0)
(1 1.41728e-05 0)
(1.00001 4.15571e-05 0)
(1.00003 6.99378e-05 0)
(1.00005 9.91322e-05 0)
(1.00008 0.000128763 0)
(1.00011 0.000159246 0)
(1.00014 0.000190734 0)
(1.00018 0.000222941 0)
(1.00023 0.000255012 0)
(1.00027 0.000286178 0)
(1.00032 0.000315655 0)
(1.00036 0.000342973 0)
(1.00041 0.000367782 0)
(1.00045 0.000390012 0)
(1.0005 0.000409715 0)
(1.00054 0.000427032 0)
(1.00058 0.000442187 0)
(1.00062 0.000455372 0)
(1.00066 0.00046686 0)
(1.0007 0.000476833 0)
(1 1.15276e-05 0)
(1.00001 3.40573e-05 0)
(1.00003 5.74244e-05 0)
(1.00005 8.15267e-05 0)
(1.00008 0.000106208 0)
(1.00012 0.000131619 0)
(1.00016 0.00015781 0)
(1.0002 0.000184447 0)
(1.00024 0.000210966 0)
(1.00029 0.000236655 0)
(1.00034 0.000260918 0)
(1.00038 0.000283314 0)
(1.00043 0.000303603 0)
(1.00048 0.000321752 0)
(1.00052 0.000337811 0)
(1.00056 0.000351947 0)
(1.00061 0.000364293 0)
(1.00064 0.000375051 0)
(1.00068 0.000384343 0)
(1.00072 0.00039236 0)
(1 5.04907e-06 0)
(1.00001 1.51802e-05 0)
(1.00003 2.59139e-05 0)
(1.00006 3.71647e-05 0)
(1.0001 4.8886e-05 0)
(1.00013 6.10566e-05 0)
(1.00017 7.36447e-05 0)
(1.00022 8.65048e-05 0)
(1.00026 9.93132e-05 0)
(1.00031 0.000111798 0)
(1.00036 0.00012357 0)
(1.00041 0.000134486 0)
(1.00046 0.000144344 0)
(1.0005 0.00015321 0)
(1.00055 0.000161037 0)
(1.00059 0.000167999 0)
(1.00063 0.000174102 0)
(1.00067 0.00017952 0)
(1.00071 0.000184213 0)
(1.00074 0.000188255 0)
(0.995331 0.00130578 0)
(0.983241 0.00187993 0)
(0.969567 0.00221347 0)
(0.956123 0.00245281 0)
(0.943314 0.00266179 0)
(0.931189 0.00276985 0)
(0.91972 0.00282358 0)
(0.908683 0.00286111 0)
(0.897662 0.00288739 0)
(0.886218 0.00291823 0)
(0.874162 0.00296431 0)
(0.86161 0.0030134 0)
(0.848795 0.00303998 0)
(0.835811 0.00303266 0)
(0.822645 0.00299253 0)
(0.809384 0.00292787 0)
(0.796237 0.0028454 0)
(0.783385 0.00276733 0)
(0.770746 0.00273549 0)
(0.75802 0.0027521 0)
(0.745023 0.00279167 0)
(0.731713 0.00284521 0)
(0.718036 0.00287534 0)
(0.704049 0.00284059 0)
(0.689892 0.00277556 0)
(0.675661 0.00271405 0)
(0.661568 0.00264194 0)
(0.647789 0.00260179 0)
(0.634054 0.00263666 0)
(0.619948 0.00265939 0)
(0.605516 0.00259277 0)
(0.591082 0.00250936 0)
(0.576747 0.00247576 0)
(0.562444 0.00243271 0)
(0.548238 0.00234519 0)
(0.534252 0.00226509 0)
(0.520466 0.00218635 0)
(0.506877 0.00204542 0)
(0.493756 0.00184252 0)
(0.481465 0.00161353 0)
(0.470151 0.00135812 0)
(0.459924 0.00102561 0)
(0.451212 0.000561706 0)
(0.444681 3.60526e-05 0)
(0.440756 -0.000366428 0)
(0.439299 -0.000528563 0)
(0.439646 -0.000636009 0)
(0.440944 -0.000595725 0)
(0.442489 -0.000469997 0)
(0.443885 -0.000332652 0)
(0.444989 -0.000220552 0)
(0.445808 -0.000139107 0)
(0.446403 -8.05045e-05 0)
(0.446847 -3.73899e-05 0)
(0.447198 -5.93924e-06 0)
(0.447495 1.53764e-05 0)
(0.44776 2.77933e-05 0)
(0.448001 3.39282e-05 0)
(0.448219 3.52636e-05 0)
(0.448414 3.2499e-05 0)
(0.448582 2.69299e-05 0)
(0.448721 2.01541e-05 0)
(0.448833 1.34763e-05 0)
(0.448918 7.6047e-06 0)
(0.448982 3.09551e-06 0)
(0.449027 1.0346e-07 0)
(0.44906 -1.53438e-06 0)
(0.449082 -2.16419e-06 0)
(0.449099 -2.17316e-06 0)
(0.449111 -1.88985e-06 0)
(0.449121 -1.53995e-06 0)
(0.449129 -1.23593e-06 0)
(0.449136 -1.01016e-06 0)
(0.449142 -8.50226e-07 0)
(0.449148 -7.35931e-07 0)
(0.449153 -6.5317e-07 0)
(0.449158 -5.89593e-07 0)
(0.449162 -5.37268e-07 0)
(0.449166 -4.92388e-07 0)
(0.44917 -4.52721e-07 0)
(0.449173 -4.16722e-07 0)
(0.449176 -3.83996e-07 0)
(0.449179 -3.54466e-07 0)
(0.449182 -3.26985e-07 0)
(0.449184 -3.00535e-07 0)
(0.449186 -2.75484e-07 0)
(0.449188 -2.53427e-07 0)
(0.449189 -2.34641e-07 0)
(0.449191 -2.17624e-07 0)
(0.449192 -1.99692e-07 0)
(0.449194 -1.81829e-07 0)
(0.449195 -1.66232e-07 0)
(0.449196 -1.53622e-07 0)
(0.449197 -1.42963e-07 0)
(0.449197 -1.31606e-07 0)
(0.449198 -1.19824e-07 0)
(0.449199 -1.09063e-07 0)
(0.449199 -1.0027e-07 0)
(0.4492 -9.27639e-08 0)
(0.4492 -8.53172e-08 0)
(0.449201 -7.77236e-08 0)
(0.449201 -7.09495e-08 0)
(0.449201 -6.52302e-08 0)
(0.449202 -6.0189e-08 0)
(0.449202 -5.51547e-08 0)
(0.449202 -4.99979e-08 0)
(0.449203 -4.55788e-08 0)
(0.449203 -4.16277e-08 0)
(0.449203 -3.82268e-08 0)
(0.449203 -3.49911e-08 0)
(0.449203 -3.14225e-08 0)
(0.449203 -2.84422e-08 0)
(0.449203 -2.5766e-08 0)
(0.449203 -2.37359e-08 0)
(0.449204 -2.21744e-08 0)
(0.449204 -2.01413e-08 0)
(0.449204 -1.79839e-08 0)
(0.449204 -1.58212e-08 0)
(0.449204 -1.40619e-08 0)
(0.449204 -1.31194e-08 0)
(0.449204 -1.23859e-08 0)
(0.449204 -1.13329e-08 0)
(0.449204 -9.9726e-09 0)
(0.449204 -8.55989e-09 0)
(0.449204 -7.6727e-09 0)
(0.449204 -7.25384e-09 0)
(0.449204 -6.83896e-09 0)
(0.449204 -6.10519e-09 0)
(0.449204 -5.14019e-09 0)
(0.449204 -4.3538e-09 0)
(0.449204 -3.97445e-09 0)
(0.449204 -3.86788e-09 0)
(0.449204 -3.63341e-09 0)
(0.449204 -3.19634e-09 0)
(0.449204 -2.68541e-09 0)
(0.449204 -2.32471e-09 0)
(0.449204 -2.16459e-09 0)
(0.449204 -1.97792e-09 0)
(0.449204 -1.75293e-09 0)
(0.449204 -1.40658e-09 0)
(0.449204 -1.10663e-09 0)
(0.449204 -1.01613e-09 0)
(0.449204 -9.64875e-10 0)
(0.449204 -9.68206e-10 0)
(0.449204 -9.11722e-10 0)
(0.449204 -8.01307e-10 0)
(0.449204 -6.62822e-10 0)
(0.449204 -5.8371e-10 0)
(0.449204 -4.52736e-10 0)
(0.449204 -2.37126e-10 0)
(0.449204 -2.36293e-10 0)
(0.449204 -1.01869e-10 0)
(0.449204 -2.10978e-10 0)
(0.449204 -3.5569e-10 0)
(0.449204 -1.86556e-10 0)
(0.449204 -2.59297e-10 0)
(0.449204 -4.98666e-11 0)
(0.449204 2.45684e-11 0)
(0.449204 -5.8656e-11 0)
(0.449204 7.06543e-11 0)
(0.449204 2.16289e-11 0)
(0.449204 5.3052e-11 0)
(0.449204 1.67975e-10 0)
(0.449204 1.38828e-10 0)
(0.449204 1.68408e-10 0)
(0.449204 2.90693e-10 0)
(0.449204 1.94524e-10 0)
(0.449204 4.02657e-10 0)
(0.449204 1.7868e-10 0)
(0.449204 6.78388e-10 0)
(0.449204 -2.33324e-10 0)
(0.449204 1.64865e-09 0)
(0.449204 -1.5541e-09 0)
(0.449203 4.41788e-09 0)
(0.449204 -5.88401e-09 0)
(0.449203 1.19029e-08 0)
(0.449204 -1.75244e-08 0)
(0.449203 3.05745e-08 0)
(0.449204 -4.49449e-08 0)
(0.449202 7.10478e-08 0)
(0.449206 -9.94398e-08 0)
(0.449199 1.42833e-07 0)
(0.449209 -1.83744e-07 0)
(0.449195 2.35748e-07 0)
(0.449213 -2.66833e-07 0)
(0.449189 2.94979e-07 0)
(0.449219 -2.72036e-07 0)
(0.449184 2.29739e-07 0)
(0.449221 -2.65665e-08 0)
(0.449181 -1.23086e-07 0)
(0.449221 3.08533e-07 0)
(0.449178 -3.89292e-07 0)
(0.449224 6.60147e-07 0)
(0.44916 -6.03222e-07 0)
(0.449238 9.68752e-07 0)
(0.449119 -8.19705e-08 0)
(0.449241 1.18957e-06 0)
(0.449049 5.34412e-07 0)
(0.449211 1.05794e-06 0)
(0.448894 7.58998e-06 0)
(1.0026 0.0020873 0)
(1.00182 0.00252729 0)
(0.999249 0.00335833 0)
(0.996889 0.00413392 0)
(0.995083 0.0047251 0)
(0.993901 0.00500702 0)
(0.993376 0.00509858 0)
(0.993308 0.00509456 0)
(0.99332 0.00504213 0)
(0.993032 0.0050015 0)
(0.992267 0.00501633 0)
(0.991083 0.00507396 0)
(0.989634 0.00514023 0)
(0.987966 0.00519176 0)
(0.986023 0.00520399 0)
(0.983834 0.00517012 0)
(0.98155 0.005099 0)
(0.979306 0.00501695 0)
(0.977075 0.00498096 0)
(0.974709 0.00501258 0)
(0.972124 0.00508114 0)
(0.969325 0.005177 0)
(0.966302 0.00528599 0)
(0.963042 0.00535202 0)
(0.959541 0.00535892 0)
(0.955791 0.00533743 0)
(0.951888 0.00527351 0)
(0.947943 0.00517816 0)
(0.943883 0.00516554 0)
(0.939587 0.00526327 0)
(0.935075 0.00533449 0)
(0.930357 0.00531063 0)
(0.925446 0.0052654 0)
(0.920397 0.00524806 0)
(0.915227 0.00520452 0)
(0.909977 0.00509809 0)
(0.904673 0.00500655 0)
(0.899295 0.00492842 0)
(0.893968 0.00472305 0)
(0.888812 0.00439766 0)
(0.883856 0.00405746 0)
(0.879289 0.00365713 0)
(0.875316 0.00310582 0)
(0.872038 0.00237918 0)
(0.869634 0.00153867 0)
(0.868112 0.000739592 0)
(0.867315 0.000151566 0)
(0.867081 -9.44739e-05 0)
(0.867206 -0.00019252 0)
(0.867535 -0.000210064 0)
(0.867972 -0.000182112 0)
(0.86847 -0.000147634 0)
(0.869015 -0.000126171 0)
(0.869614 -0.000120447 0)
(0.870294 -0.000125363 0)
(0.87109 -0.00013432 0)
(0.872029 -0.000141686 0)
(0.873117 -0.000142561 0)
(0.874327 -0.000135371 0)
(0.875605 -0.000120882 0)
(0.876882 -0.000101048 0)
(0.878088 -7.86528e-05 0)
(0.879165 -5.68865e-05 0)
(0.880074 -3.84339e-05 0)
(0.880801 -2.42116e-05 0)
(0.881354 -1.41432e-05 0)
(0.881754 -7.67694e-06 0)
(0.882028 -3.95385e-06 0)
(0.882209 -2.08095e-06 0)
(0.882321 -1.30739e-06 0)
(0.882389 -1.09167e-06 0)
(0.882427 -1.09241e-06 0)
(0.882447 -1.13968e-06 0)
(0.882458 -1.17118e-06 0)
(0.882462 -1.17185e-06 0)
(0.882463 -1.14455e-06 0)
(0.882463 -1.0883e-06 0)
(0.882462 -1.00964e-06 0)
(0.88246 -9.18821e-07 0)
(0.882458 -8.2465e-07 0)
(0.882456 -7.33058e-07 0)
(0.882454 -6.4744e-07 0)
(0.882451 -5.70352e-07 0)
(0.882449 -5.07611e-07 0)
(0.882447 -4.48017e-07 0)
(0.882444 -3.93001e-07 0)
(0.882442 -3.44323e-07 0)
(0.88244 -3.02571e-07 0)
(0.882438 -2.66415e-07 0)
(0.882435 -2.32947e-07 0)
(0.882433 -2.01493e-07 0)
(0.882431 -1.73288e-07 0)
(0.882429 -1.50391e-07 0)
(0.882427 -1.31587e-07 0)
(0.882426 -1.14503e-07 0)
(0.882424 -9.813e-08 0)
(0.882422 -8.21603e-08 0)
(0.882421 -6.97228e-08 0)
(0.882419 -5.94241e-08 0)
(0.882418 -5.05882e-08 0)
(0.882416 -4.24186e-08 0)
(0.882415 -3.43583e-08 0)
(0.882414 -2.76311e-08 0)
(0.882413 -2.27395e-08 0)
(0.882412 -1.82756e-08 0)
(0.88241 -1.39653e-08 0)
(0.882409 -1.04615e-08 0)
(0.882409 -6.52954e-09 0)
(0.882408 -4.35746e-09 0)
(0.882407 -2.36403e-09 0)
(0.882406 7.60024e-11 0)
(0.882405 1.59628e-09 0)
(0.882405 3.69391e-09 0)
(0.882404 4.54815e-09 0)
(0.882403 4.74653e-09 0)
(0.882403 5.0408e-09 0)
(0.882402 5.65485e-09 0)
(0.882402 6.79087e-09 0)
(0.882401 7.56408e-09 0)
(0.882401 7.7309e-09 0)
(0.8824 7.11096e-09 0)
(0.8824 6.60505e-09 0)
(0.882399 6.81742e-09 0)
(0.882399 7.23887e-09 0)
(0.882399 7.3331e-09 0)
(0.882398 7.02506e-09 0)
(0.882398 6.17282e-09 0)
(0.882398 5.81806e-09 0)
(0.882398 6.00783e-09 0)
(0.882397 6.11561e-09 0)
(0.882397 6.05846e-09 0)
(0.882397 5.46707e-09 0)
(0.882397 4.85578e-09 0)
(0.882397 4.46806e-09 0)
(0.882397 4.3776e-09 0)
(0.882396 4.26798e-09 0)
(0.882396 3.89223e-09 0)
(0.882396 3.71632e-09 0)
(0.882396 3.36378e-09 0)
(0.882396 3.30716e-09 0)
(0.882396 3.35679e-09 0)
(0.882396 3.02071e-09 0)
(0.882396 2.83191e-09 0)
(0.882396 2.42752e-09 0)
(0.882396 2.18108e-09 0)
(0.882396 1.9515e-09 0)
(0.882396 1.89446e-09 0)
(0.882395 1.7702e-09 0)
(0.882395 1.57514e-09 0)
(0.882395 1.74234e-09 0)
(0.882395 1.52112e-09 0)
(0.882395 1.54533e-09 0)
(0.882395 1.42994e-09 0)
(0.882395 1.02217e-09 0)
(0.882395 1.02625e-09 0)
(0.882395 8.79617e-10 0)
(0.882395 9.09529e-10 0)
(0.882395 1.02739e-09 0)
(0.882395 8.84161e-10 0)
(0.882395 8.90043e-10 0)
(0.882395 9.42192e-10 0)
(0.882395 7.8857e-10 0)
(0.882395 9.75345e-10 0)
(0.882395 9.62338e-10 0)
(0.882395 8.73024e-10 0)
(0.882395 1.17411e-09 0)
(0.882395 9.42274e-10 0)
(0.882395 1.38249e-09 0)
(0.882395 8.68184e-10 0)
(0.882395 2.1123e-09 0)
(0.882395 3.96968e-11 0)
(0.882395 4.39218e-09 0)
(0.882395 -2.41095e-09 0)
(0.882395 1.05952e-08 0)
(0.882395 -1.11018e-08 0)
(0.882394 2.69386e-08 0)
(0.882396 -3.50211e-08 0)
(0.882393 6.68863e-08 0)
(0.882399 -9.16402e-08 0)
(0.882389 1.52336e-07 0)
(0.882404 -2.04391e-07 0)
(0.88238 3.03854e-07 0)
(0.882415 -3.80635e-07 0)
(0.882366 5.02077e-07 0)
(0.882432 -5.53782e-07 0)
(0.882347 6.15161e-07 0)
(0.88245 -5.10127e-07 0)
(0.882331 3.65181e-07 0)
(0.88246 5.35447e-08 0)
(0.882328 -4.27447e-07 0)
(0.882454 1.1507e-06 0)
(0.882333 -1.49079e-06 0)
(0.882448 2.04217e-06 0)
(0.882324 -1.36716e-06 0)
(0.882457 1.52506e-06 0)