/*--------------------------------*- C++ -*----------------------------------*\
| =========                 |                                                 |
| \\      /  F ield         | OpenFOAM: The Open Source CFD Toolbox           |
|  \\    /   O peration     | Version:  v2012                                 |
|   \\  /    A nd           | Website:  www.openfoam.com                      |
|    \\/     M anipulation  |                                                 |
\*---------------------------------------------------------------------------*/
FoamFile
{
    version     2.0;
    format      ascii;
    class       volScalarField;
    location    "0.6";
    object      p;
}
// * * * * * * * * * * * * * * * * * * * * * * * * * * * * * * * * * * * * * //

dimensions      [0 2 -2 0 0 0 0];


internalField   nonuniform List<scalar> 
8800
(
1.29143e-08
0.00068703
0.000750096
0.00077401
0.000623465
0.000555205
0.000364467
0.000207563
-1.50558e-05
-0.000249744
-0.00051259
-0.000805251
-0.00115411
-0.00150644
-0.00191622
-0.00236042
-0.00290924
-0.00354962
-0.00447515
-0.00621027
3.6934e-06
0.000684514
0.000751038
0.000772273
0.000626185
0.000552891
0.000366861
0.000206994
-1.27409e-05
-0.000250294
-0.000512531
-0.000813066
-0.00115216
-0.00151324
-0.00190589
-0.0023752
-0.00290377
-0.00362336
-0.00459032
-0.00661738
1.00258e-05
0.000678941
0.000753115
0.000768394
0.00063215
0.000547826
0.000370811
0.000206492
-1.6201e-05
-0.000246478
-0.000514851
-0.000816278
-0.00115316
-0.00151046
-0.00190706
-0.00239636
-0.00297813
-0.00368963
-0.00455439
-0.00636235
1.6371e-05
0.000673724
0.00075316
0.000767705
0.000635316
0.000548029
0.000369293
0.000215627
-3.23831e-05
-0.000230061
-0.000535983
-0.000815381
-0.00115929
-0.00150374
-0.001904
-0.00238988
-0.00313404
-0.00406002
-0.00533108
-0.00641654
2.7199e-05
0.000661538
0.000757893
0.000760129
0.000648729
0.000534169
0.000386003
0.000203484
-1.78417e-05
-0.000237626
-0.000522103
-0.000835028
-0.00115969
-0.00151674
-0.00191067
-0.00240363
-0.00297393
-0.00369349
-0.00470547
-0.00685652
3.83547e-05
0.000649941
0.000757914
0.00075941
0.000653265
0.000535154
0.00039077
0.000199982
-1.69131e-05
-0.000244639
-0.000530953
-0.000840866
-0.00116238
-0.00152391
-0.00190183
-0.00238372
-0.00296329
-0.00386903
-0.00521101
-0.00779136
5.3142e-05
0.000633207
0.000760631
0.000754883
0.000661908
0.000536827
0.000389384
0.00021081
-1.70293e-05
-0.000251656
-0.000538543
-0.000845976
-0.00117609
-0.0015233
-0.00191248
-0.00237522
-0.00298689
-0.00384534
-0.00527953
-0.0079726
7.24484e-05
0.000608403
0.000765567
0.000750406
0.00066666
0.000544778
0.000390123
0.000211916
-9.81719e-06
-0.000264533
-0.000548439
-0.000859362
-0.00118325
-0.00153874
-0.00191599
-0.00238066
-0.00299412
-0.00391112
-0.00546393
-0.00834962
9.30015e-05
0.000594076
0.000749687
0.000760297
0.000659273
0.000559325
0.000394337
0.000202479
5.92577e-06
-0.000281139
-0.000559785
-0.00085778
-0.00119522
-0.00154814
-0.00192838
-0.00239337
-0.00303391
-0.00400676
-0.00566006
-0.00868908
0.000120893
0.000564165
0.000749025
0.00074919
0.000669426
0.000569237
0.000403839
0.000209198
-1.06217e-05
-0.000280175
-0.00057689
-0.000884427
-0.00120984
-0.0015575
-0.00194178
-0.00241774
-0.00308791
-0.00411681
-0.00585469
-0.00898182
0.000147748
0.000548091
0.000726583
0.000744494
0.000687194
0.000561587
0.000422258
0.000223364
-3.94566e-05
-0.000280097
-0.0005817
-0.000905925
-0.00122691
-0.00157042
-0.00196115
-0.00245387
-0.0031545
-0.00423676
-0.00604533
-0.00924848
0.000181976
0.000529054
0.000695905
0.000746328
0.000685495
0.000570807
0.000447127
0.000224748
-4.5416e-05
-0.000304438
-0.000595998
-0.000919623
-0.00124461
-0.00158938
-0.00198874
-0.00250033
-0.00323159
-0.00436209
-0.00623146
-0.0094971
0.000217974
0.00051211
0.000668583
0.00072748
0.000690804
0.000598257
0.000446953
0.000228786
-3.96642e-05
-0.000327735
-0.000621647
-0.000935234
-0.00126146
-0.00161196
-0.00202294
-0.00255452
-0.00331616
-0.00448984
-0.00641203
-0.00973208
0.000253362
0.000500754
0.000643178
0.000696189
0.000697846
0.000616819
0.000446622
0.000239913
-2.97082e-05
-0.000343201
-0.000652195
-0.000960609
-0.00128331
-0.00163868
-0.00206239
-0.00261566
-0.00340687
-0.00461897
-0.00658458
-0.0099472
0.000287935
0.000496222
0.000617805
0.000669748
0.000680697
0.000634461
0.000471166
0.000235449
-3.31087e-05
-0.000345464
-0.000673657
-0.00099236
-0.0013133
-0.00167116
-0.00210697
-0.00268214
-0.00350194
-0.00474828
-0.00675044
-0.0101499
0.000320474
0.000495388
0.000597957
0.000640801
0.000652309
0.000634888
0.000505452
0.000244108
-4.94529e-05
-0.000354167
-0.000684489
-0.00101871
-0.00134824
-0.00171021
-0.00215728
-0.00275314
-0.0036
-0.00487685
-0.00691079
-0.0103422
0.000352358
0.000495268
0.000581244
0.000619263
0.000623375
0.000611865
0.000524335
0.000274692
-5.50841e-05
-0.000375356
-0.000700443
-0.00103927
-0.00138184
-0.00175413
-0.00221313
-0.00282779
-0.00369925
-0.00500343
-0.00706427
-0.0105216
0.0003847
0.000494684
0.000566931
0.00060475
0.000594002
0.000573292
0.000515518
0.000308399
-3.598e-05
-0.000390922
-0.00072557
-0.00106382
-0.00141446
-0.00179928
-0.00227161
-0.00290397
-0.00379752
-0.00512599
-0.00721018
-0.0106894
0.000411956
0.000498078
0.000554686
0.000588412
0.000576293
0.000537587
0.000475032
0.000313745
-8.69622e-08
-0.000382036
-0.000745552
-0.00109431
-0.00145087
-0.00184631
-0.00233172
-0.00298027
-0.00389339
-0.00524274
-0.00734664
-0.0108434
0.00043424
0.000505497
0.000544834
0.000569438
0.000563098
0.000510631
0.00042637
0.000281735
1.73102e-05
-0.000350277
-0.000743746
-0.00111923
-0.00149079
-0.00189639
-0.00239368
-0.0030559
-0.00398516
-0.00535167
-0.00747227
-0.0109841
0.000453517
0.000511149
0.000537682
0.000551184
0.000543642
0.000491467
0.000388315
0.000233808
2.68702e-06
-0.000327165
-0.00071822
-0.00112348
-0.00152288
-0.00194756
-0.00245657
-0.00312999
-0.00407172
-0.00545151
-0.00758534
-0.0111098
0.000468577
0.000514723
0.000532834
0.000535053
0.000518628
0.000468817
0.000363374
0.000192429
-3.60785e-05
-0.000328945
-0.000694362
-0.0011057
-0.00153569
-0.00198861
-0.00251641
-0.00320065
-0.00415169
-0.00554107
-0.0076849
-0.0112197
0.000477645
0.000515713
0.000530548
0.000520584
0.000491928
0.000440783
0.000337985
0.000161834
-7.24921e-05
-0.000352344
-0.000686353
-0.00108391
-0.00152712
-0.00200977
-0.00256234
-0.00326204
-0.00422159
-0.00561827
-0.0077692
-0.0113118
0.000482143
0.000513449
0.000523269
0.000507613
0.000468686
0.000409508
0.000308356
0.000136709
-9.94918e-05
-0.000376465
-0.000694538
-0.00107088
-0.00151048
-0.00200928
-0.00258671
-0.00330527
-0.00427579
-0.00567896
-0.00783554
-0.0113841
0.000482518
0.000506534
0.000509244
0.000492381
0.000449477
0.000380066
0.000275062
0.000110009
-0.000117888
-0.00039211
-0.000703401
-0.0010656
-0.00149318
-0.00199391
-0.00258598
-0.00332235
-0.00430637
-0.00571804
-0.00788071
-0.0114347
0.000475263
0.000494693
0.00049249
0.000473574
0.000429076
0.000352726
0.000241984
8.28235e-05
-0.000133242
-0.000398489
-0.000704269
-0.00105807
-0.00147358
-0.00196635
-0.00255941
-0.00330478
-0.00430205
-0.00572668
-0.00789986
-0.011463
0.000459875
0.000476876
0.000471724
0.00045059
0.000405361
0.00032549
0.00021096
5.66258e-05
-0.000145551
-0.000396142
-0.000692911
-0.00104121
-0.00144901
-0.00192951
-0.00250765
-0.00323922
-0.00422634
-0.00564702
-0.00782433
-0.0113962
0.000436271
0.000451658
0.000445436
0.000423036
0.000376658
0.000295972
0.000181961
3.25061e-05
-0.00015569
-0.00038636
-0.000664544
-0.00100111
-0.00140736
-0.00189475
-0.00248517
-0.00322935
-0.00422372
-0.00564251
-0.00781009
-0.011376
0.000402978
0.000417376
0.000412444
0.00038917
0.000340563
0.000263521
0.00015627
1.39096e-05
-0.000166762
-0.000381486
-0.000630258
-0.000922744
-0.00127359
-0.00170133
-0.00223693
-0.0029414
-0.00392122
-0.00534996
-0.00754226
-0.0111333
0.000358267
0.000375201
0.000373024
0.000345251
0.000291115
0.000220676
0.000134902
1.462e-05
-0.000157449
-0.000379058
-0.000643231
-0.000955219
-0.00132645
-0.00177034
-0.00230764
-0.00298597
-0.00390418
-0.00525668
-0.00738329
-0.0109282
0.000301442
0.000326406
0.000328519
0.000293395
0.000228948
0.00015272
7.42319e-05
-1.01799e-05
-0.000117882
-0.000255813
-0.000423382
-0.000626363
-0.000881527
-0.00121657
-0.00167227
-0.00231346
-0.00324819
-0.00465124
-0.00685937
-0.0105384
0.000222711
0.000260001
0.000265393
0.000236545
0.000197184
0.000134277
3.36029e-05
-0.000113924
-0.000300883
-0.000519943
-0.000757779
-0.00100514
-0.00126605
-0.00155429
-0.0018947
-0.00233157
-0.00295906
-0.00396581
-0.00571
-0.00890227
0.000174036
0.000174043
0.000142646
0.000105159
7.57301e-05
5.96447e-05
6.48663e-05
7.81211e-05
7.52249e-05
3.7609e-05
-3.33719e-05
-0.000133894
-0.000276151
-0.000495291
-0.000837795
-0.00137891
-0.00224266
-0.00364408
-0.00594571
-0.00988492
9.04617e-05
7.74354e-05
8.90132e-05
0.000104007
6.2118e-05
-7.92838e-05
-0.000309898
-0.000608791
-0.000934667
-0.00123665
-0.00145394
-0.0015406
-0.00153257
-0.00152323
-0.00153007
-0.00149717
-0.00123745
-0.000434443
0.0013752
0.00492056
-5.58354e-05
-8.62182e-05
-0.000114017
-0.000109083
-4.0298e-05
0.000109399
0.000289999
0.000443591
0.000542701
0.000593429
0.000609264
0.000584289
0.000490311
0.000304557
-3.75136e-05
-0.000612168
-0.00155567
-0.00309436
-0.00557999
-0.00956777
-0.000139179
-0.000112082
-0.000104038
-0.000150626
-0.000277535
-0.000476153
-0.000718741
-0.000951425
-0.00110354
-0.00112922
-0.00104263
-0.000887236
-0.000691047
-0.000440888
-8.85594e-05
0.000467332
0.00139229
0.00292406
0.00544009
0.00963232
-0.000390278
-0.000413927
-0.000385988
-0.000288377
-8.92056e-05
0.00018689
0.000489372
0.000758341
0.000957518
0.00109477
0.00119074
0.00125177
0.00126063
0.00117104
0.000914951
0.000387671
-0.000564866
-0.00215738
-0.00473994
-0.00898127
-0.000403929
-0.000399385
-0.000446893
-0.000544523
-0.000688219
-0.000842762
-0.000946518
-0.000950187
-0.000837866
-0.000621502
-0.000315659
7.32079e-05
0.000550665
0.00113262
0.00185385
0.00277806
0.00401435
0.00575404
0.00834113
0.0124416
-0.000697028
-0.000708135
-0.000667895
-0.000570971
-0.000401422
-0.000143242
0.000200672
0.000595323
0.000981522
0.00130545
0.00158208
0.00185739
0.00215121
0.00242381
0.00257703
0.00248742
0.00200546
0.000911707
-0.00118097
-0.00499948
-0.000671788
-0.00072541
-0.000877064
-0.00108042
-0.00126791
-0.00138147
-0.00137567
-0.00122561
-0.000919647
-0.000451031
0.000184907
0.000994942
0.00198667
0.00317521
0.00458314
0.00622512
0.00813445
0.0104112
0.0133112
0.0174254
-0.00785582
-0.00707904
-0.0043565
-0.00169304
0.000375337
0.00180405
0.00266736
0.00304667
0.00300643
0.00262087
0.00199793
0.0012685
0.000549526
-8.19389e-05
-0.000590667
-0.000972953
-0.00124595
-0.00143759
-0.00157844
-0.00169532
-0.0018088
-0.00193232
-0.00207331
-0.00223536
-0.00241931
-0.00262442
-0.0028484
-0.00308868
-0.003343
-0.00360934
-0.00388612
-0.00417157
-0.004465
-0.00476577
-0.00507385
-0.00538872
-0.00571074
-0.00604106
-0.00638078
-0.00673199
-0.00709575
-0.00747514
-0.00787226
-0.00828808
-0.00872391
-0.00917561
-0.00964141
-0.0101147
-0.0105919
-0.0110727
-0.0115519
-0.0120334
-0.0125091
-0.0129657
-0.0133911
-0.0137658
-0.0140825
-0.0143398
-0.0145418
-0.0146965
-0.0148126
-0.014903
-0.0149709
-0.0150265
-0.0150813
-0.0151419
-0.0152191
-0.0153113
-0.0154164
-0.0155371
-0.0156717
-0.0158255
-0.0159992
-0.0161924
-0.016406
-0.0166335
-0.016873
-0.017122
-0.0173763
-0.0176381
-0.0179048
-0.0181761
-0.0184568
-0.0187447
-0.0190373
-0.0193314
-0.0196213
-0.019911
-0.0202088
-0.0205167
-0.0208344
-0.0211569
-0.0214756
-0.0217864
-0.0220924
-0.0224017
-0.0227212
-0.0230528
-0.0233949
-0.02374
-0.0240744
-0.0244016
-0.0247375
-0.0250822
-0.0254287
-0.0257796
-0.0261311
-0.0264773
-0.0268256
-0.0271876
-0.0275669
-0.0279484
-0.028307
-0.0286492
-0.0290095
-0.0293913
-0.029767
-0.0301333
-0.0305089
-0.0308968
-0.0312835
-0.0316661
-0.0320511
-0.0324415
-0.0328328
-0.0332244
-0.0336185
-0.0340149
-0.0344134
-0.0348166
-0.0352234
-0.0356314
-0.0360428
-0.0364603
-0.0368798
-0.0372994
-0.0377212
-0.0381486
-0.0385777
-0.0390089
-0.0394433
-0.0398839
-0.0403275
-0.0407744
-0.041225
-0.04168
-0.0421389
-0.0426003
-0.0430653
-0.0435332
-0.0440055
-0.0444814
-0.0449619
-0.0454473
-0.0459366
-0.0464317
-0.0469296
-0.0474338
-0.0479404
-0.0484532
-0.0489687
-0.04949
-0.0500147
-0.0505448
-0.0510788
-0.0516185
-0.0521616
-0.0527116
-0.0532637
-0.0538243
-0.054386
-0.0549566
-0.0555288
-0.0561092
-0.0566921
-0.0572826
-0.0578755
-0.0584772
-0.0590793
-0.0596927
-0.0603043
-0.0609285
-0.0615508
-0.0621841
-0.0628168
-0.0634594
-0.0640999
-0.0647521
-0.0653981
-0.066057
-0.0667068
-0.0673667
-0.0680142
-0.0686677
-0.0692983
-0.0699287
-0.0705154
-0.0710826
-0.0715538
-0.0719827
-0.0084436
-0.00751359
-0.00463105
-0.00187768
0.000289632
0.00182371
0.0027546
0.00314278
0.00306866
0.00264055
0.00199051
0.00125127
0.000532324
-9.63812e-05
-0.000603658
-0.000986551
-0.00126119
-0.00145429
-0.00159568
-0.00171217
-0.00182467
-0.00194707
-0.00208707
-0.00224843
-0.00243194
-0.0026369
-0.00286088
-0.00310119
-0.00335547
-0.00362167
-0.00389831
-0.00418347
-0.00447654
-0.00477684
-0.00508448
-0.00539901
-0.00572054
-0.00605044
-0.0063896
-0.00674029
-0.00710346
-0.0074816
-0.00787732
-0.00829094
-0.00872423
-0.00917316
-0.009636
-0.010107
-0.0105808
-0.011058
-0.0115339
-0.0120114
-0.0124843
-0.012939
-0.0133633
-0.0137381
-0.0140554
-0.0143144
-0.0145195
-0.0146776
-0.0147962
-0.0148889
-0.0149591
-0.0150164
-0.0150729
-0.015135
-0.0152127
-0.0153054
-0.0154115
-0.0155327
-0.0156677
-0.0158224
-0.0159963
-0.0161895
-0.0164032
-0.0166305
-0.01687
-0.0171192
-0.0173736
-0.0176356
-0.0179024
-0.0181736
-0.0184543
-0.0187422
-0.0190349
-0.0193291
-0.019619
-0.0199088
-0.0202067
-0.0205147
-0.0208324
-0.021155
-0.0214738
-0.0217845
-0.0220907
-0.0224001
-0.0227197
-0.0230514
-0.0233935
-0.0237387
-0.024073
-0.0244003
-0.0247363
-0.0250812
-0.0254277
-0.0257787
-0.0261303
-0.0264765
-0.0268247
-0.0271867
-0.0275661
-0.0279479
-0.0283065
-0.0286486
-0.0290089
-0.0293909
-0.0297666
-0.0301328
-0.0305084
-0.0308965
-0.0312832
-0.0316658
-0.0320509
-0.0324413
-0.0328327
-0.0332242
-0.0336184
-0.0340147
-0.0344133
-0.0348165
-0.0352234
-0.0356313
-0.0360427
-0.0364603
-0.0368799
-0.0372994
-0.0377211
-0.0381487
-0.0385777
-0.0390089
-0.0394433
-0.0398839
-0.0403276
-0.0407744
-0.041225
-0.04168
-0.042139
-0.0426003
-0.0430653
-0.0435332
-0.0440055
-0.0444815
-0.0449619
-0.0454473
-0.0459367
-0.0464317
-0.0469297
-0.0474338
-0.0479404
-0.0484532
-0.0489687
-0.04949
-0.0500147
-0.0505448
-0.0510788
-0.0516185
-0.0521616
-0.0527116
-0.0532637
-0.0538243
-0.054386
-0.0549566
-0.0555288
-0.0561092
-0.0566921
-0.0572826
-0.0578755
-0.0584772
-0.0590792
-0.0596927
-0.0603043
-0.0609285
-0.0615507
-0.0621841
-0.0628168
-0.0634594
-0.0640999
-0.0647521
-0.0653981
-0.066057
-0.0667069
-0.0673667
-0.0680142
-0.0686678
-0.0692983
-0.0699289
-0.0705154
-0.0710831
-0.0715556
-0.0719836
-0.00843617
-0.0079284
-0.0052898
-0.00247922
-5.21335e-05
0.00175471
0.00286953
0.00330804
0.00318329
0.0026774
0.00197382
0.00121539
0.000498357
-0.000122102
-0.000622892
-0.00100327
-0.00127836
-0.00147289
-0.00161514
-0.00173142
-0.00184287
-0.00196389
-0.00210268
-0.00226315
-0.00244628
-0.00265127
-0.00287562
-0.00311634
-0.00337097
-0.00363741
-0.00391414
-0.00419928
-0.00449208
-0.004792
-0.00509919
-0.00541339
-0.00573455
-0.00606396
-0.00640269
-0.00675283
-0.00711547
-0.00749231
-0.00788585
-0.00829627
-0.00872481
-0.00916819
-0.00962411
-0.0100881
-0.0105547
-0.0110245
-0.0114948
-0.0119651
-0.0124305
-0.012878
-0.0132943
-0.0136636
-0.0139784
-0.0142379
-0.0144479
-0.0146146
-0.0147429
-0.0148442
-0.0149236
-0.0149896
-0.0150528
-0.0151202
-0.0152013
-0.0152962
-0.0154045
-0.0155275
-0.0156647
-0.0158222
-0.0159991
-0.0161938
-0.0164075
-0.0166341
-0.0168725
-0.0171209
-0.0173752
-0.0176372
-0.0179042
-0.0181755
-0.0184558
-0.0187426
-0.0190343
-0.0193279
-0.0196183
-0.0199088
-0.0202071
-0.0205147
-0.0208315
-0.0211533
-0.0214716
-0.0217827
-0.0220896
-0.0223997
-0.0227194
-0.0230506
-0.023392
-0.0237367
-0.0240713
-0.0243989
-0.0247352
-0.02508
-0.0254264
-0.0257772
-0.0261288
-0.026475
-0.0268235
-0.0271855
-0.0275645
-0.0279461
-0.0283048
-0.0286472
-0.0290077
-0.0293897
-0.0297652
-0.0301315
-0.0305073
-0.0308953
-0.031282
-0.0316646
-0.0320498
-0.0324403
-0.0328317
-0.0332233
-0.0336175
-0.0340139
-0.0344126
-0.0348158
-0.0352227
-0.0356307
-0.0360421
-0.0364597
-0.0368793
-0.0372989
-0.0377207
-0.0381483
-0.0385773
-0.0390086
-0.039443
-0.0398836
-0.0403273
-0.0407742
-0.0412248
-0.0416798
-0.0421388
-0.0426001
-0.0430652
-0.0435331
-0.0440054
-0.0444814
-0.0449618
-0.0454473
-0.0459366
-0.0464317
-0.0469296
-0.0474338
-0.0479404
-0.0484532
-0.0489687
-0.04949
-0.0500147
-0.0505448
-0.0510788
-0.0516185
-0.0521616
-0.0527117
-0.0532637
-0.0538243
-0.054386
-0.0549567
-0.0555288
-0.0561092
-0.0566921
-0.0572826
-0.0578755
-0.0584772
-0.0590792
-0.0596928
-0.0603043
-0.0609285
-0.0615508
-0.0621842
-0.0628168
-0.0634594
-0.0641
-0.0647522
-0.0653982
-0.0660571
-0.0667071
-0.0673669
-0.0680146
-0.0686682
-0.069299
-0.0699299
-0.0705171
-0.0710854
-0.0715641
-0.0719917
-0.00630723
-0.00652748
-0.00575762
-0.00346062
-0.000682573
0.00155308
0.00291558
0.00340613
0.00322733
0.00265134
0.00190349
0.00113222
0.000422705
-0.000183326
-0.000671284
-0.00104376
-0.00131548
-0.0015091
-0.00165081
-0.00176578
-0.00187513
-0.00199354
-0.00212988
-0.00228823
-0.00246998
-0.00267416
-0.00289828
-0.00313902
-0.00339368
-0.00366018
-0.00393682
-0.00422183
-0.0045142
-0.00481364
-0.0051203
-0.00543412
-0.00575494
-0.0060838
-0.006422
-0.00677123
-0.00713276
-0.00750739
-0.00789727
-0.00830262
-0.00872418
-0.00915987
-0.00960706
-0.0100625
-0.0105214
-0.0109841
-0.0114482
-0.0119109
-0.012367
-0.0128052
-0.0132127
-0.0135756
-0.013888
-0.0141487
-0.0143636
-0.0145397
-0.0146795
-0.0147918
-0.0148818
-0.0149575
-0.0150286
-0.0151018
-0.0151868
-0.0152842
-0.0153946
-0.0155207
-0.0156608
-0.0158214
-0.0160018
-0.0161981
-0.0164116
-0.0166372
-0.0168736
-0.0171208
-0.017375
-0.0176373
-0.017905
-0.0181765
-0.0184562
-0.0187416
-0.0190313
-0.0193243
-0.0196154
-0.0199073
-0.0202063
-0.0205133
-0.0208286
-0.0211492
-0.0214671
-0.0217786
-0.0220864
-0.0223974
-0.0227175
-0.0230483
-0.0233887
-0.0237328
-0.0240676
-0.0243956
-0.0247322
-0.0250771
-0.0254233
-0.0257739
-0.0261255
-0.0264724
-0.0268216
-0.0271834
-0.0275611
-0.0279415
-0.0283005
-0.0286444
-0.0290057
-0.0293872
-0.0297624
-0.0301291
-0.0305052
-0.030893
-0.0312794
-0.0316621
-0.0320475
-0.0324381
-0.0328295
-0.0332213
-0.0336157
-0.0340122
-0.0344109
-0.0348142
-0.0352212
-0.0356293
-0.0360409
-0.0364585
-0.0368781
-0.0372979
-0.0377198
-0.0381474
-0.0385764
-0.0390078
-0.0394423
-0.0398829
-0.0403267
-0.0407736
-0.0412243
-0.0416793
-0.0421384
-0.0425997
-0.0430649
-0.0435328
-0.0440052
-0.0444812
-0.0449617
-0.0454471
-0.0459365
-0.0464315
-0.0469295
-0.0474337
-0.0479403
-0.0484531
-0.0489686
-0.0494899
-0.0500146
-0.0505447
-0.0510788
-0.0516185
-0.0521616
-0.0527116
-0.0532637
-0.0538243
-0.054386
-0.0549567
-0.0555288
-0.0561092
-0.0566921
-0.0572826
-0.0578755
-0.0584772
-0.0590793
-0.0596928
-0.0603044
-0.0609286
-0.0615509
-0.0621842
-0.0628169
-0.0634595
-0.0641002
-0.0647522
-0.0653985
-0.0660573
-0.0667075
-0.0673672
-0.0680154
-0.068669
-0.0693005
-0.0699316
-0.0705208
-0.0710897
-0.0715787
-0.0720074
-0.00920852
-0.00882535
-0.00616191
-0.00304081
-0.000210839
0.0018907
0.0031286
0.00352983
0.0032899
0.00267095
0.00189444
0.00110831
0.000394946
-0.000208773
-0.000692603
-0.00106205
-0.00133296
-0.00152743
-0.00167037
-0.00178589
-0.00189487
-0.00201213
-0.00214712
-0.00230419
-0.00248514
-0.00268907
-0.00291347
-0.00315485
-0.00341019
-0.00367739
-0.00395457
-0.00424006
-0.00453257
-0.00483196
-0.0051385
-0.00545223
-0.00577296
-0.00610136
-0.00643887
-0.00678698
-0.00714683
-0.00751868
-0.00790412
-0.00830353
-0.00871761
-0.00914505
-0.00958348
-0.0100303
-0.0104818
-0.0109371
-0.0113937
-0.0118477
-0.0122937
-0.0127223
-0.0131216
-0.0134789
-0.013789
-0.014051
-0.0142706
-0.0144554
-0.0146073
-0.0147322
-0.014834
-0.0149202
-0.015
-0.0150797
-0.0151687
-0.0152688
-0.0153816
-0.0155113
-0.0156551
-0.0158192
-0.0160033
-0.0162014
-0.0164149
-0.0166391
-0.0168731
-0.0171192
-0.0173737
-0.0176368
-0.0179055
-0.0181774
-0.0184562
-0.0187398
-0.0190275
-0.0193197
-0.019612
-0.0199056
-0.0202054
-0.0205115
-0.0208251
-0.0211443
-0.0214618
-0.0217738
-0.0220827
-0.0223948
-0.0227155
-0.0230457
-0.0233849
-0.0237282
-0.0240629
-0.0243916
-0.0247285
-0.0250735
-0.0254196
-0.0257698
-0.0261216
-0.0264693
-0.026819
-0.0271804
-0.0275566
-0.0279353
-0.0282948
-0.0286408
-0.029003
-0.0293838
-0.0297586
-0.0301259
-0.0305023
-0.0308896
-0.0312757
-0.0316586
-0.0320443
-0.0324348
-0.0328263
-0.0332182
-0.0336128
-0.0340096
-0.0344085
-0.034812
-0.035219
-0.0356273
-0.036039
-0.0364565
-0.0368761
-0.037296
-0.0377181
-0.0381457
-0.0385749
-0.0390065
-0.0394412
-0.0398819
-0.0403256
-0.0407727
-0.0412234
-0.0416785
-0.0421375
-0.0425989
-0.0430641
-0.0435322
-0.0440046
-0.0444807
-0.0449613
-0.0454468
-0.0459361
-0.0464312
-0.0469292
-0.0474334
-0.04794
-0.0484528
-0.0489683
-0.0494896
-0.0500144
-0.0505445
-0.0510786
-0.0516183
-0.0521615
-0.0527115
-0.0532636
-0.0538242
-0.0543859
-0.0549566
-0.0555288
-0.0561092
-0.0566921
-0.0572826
-0.0578755
-0.0584773
-0.0590794
-0.0596928
-0.0603046
-0.0609286
-0.0615511
-0.0621842
-0.0628172
-0.0634595
-0.0641005
-0.0647523
-0.065399
-0.0660574
-0.0667083
-0.0673677
-0.0680167
-0.0686699
-0.0693029
-0.0699338
-0.0705266
-0.0710961
-0.071597
-0.0720295
-0.0100671
-0.00922835
-0.00583381
-0.00236218
0.000396268
0.00228848
0.00331943
0.00359699
0.00330206
0.00265729
0.00186719
0.00107363
0.00035688
-0.000247115
-0.000729214
-0.00109613
-0.00136491
-0.00155801
-0.00169996
-0.00181437
-0.00192186
-0.00203732
-0.0021704
-0.00232572
-0.00250525
-0.00270835
-0.00293243
-0.003174
-0.00342968
-0.00369736
-0.003975
-0.00426088
-0.00455359
-0.00485286
-0.00515921
-0.00547267
-0.00579307
-0.00612074
-0.00645707
-0.00680355
-0.00716104
-0.00752947
-0.00790995
-0.00830298
-0.00870952
-0.00912871
-0.00955846
-0.00999684
-0.0104404
-0.0108877
-0.0113358
-0.0117806
-0.0122171
-0.0126365
-0.0130283
-0.0133806
-0.0136881
-0.0139513
-0.014175
-0.0143676
-0.0145312
-0.0146691
-0.0147839
-0.0148813
-0.0149702
-0.0150565
-0.0151494
-0.0152522
-0.0153675
-0.0155006
-0.0156489
-0.0158168
-0.0160045
-0.0162047
-0.0164179
-0.0166407
-0.0168723
-0.0171173
-0.0173725
-0.0176365
-0.0179062
-0.0181786
-0.0184562
-0.0187378
-0.0190235
-0.019315
-0.0196086
-0.0199041
-0.0202046
-0.0205096
-0.0208211
-0.0211389
-0.0214561
-0.0217687
-0.0220789
-0.0223922
-0.0227132
-0.0230427
-0.0233806
-0.0237229
-0.0240579
-0.0243873
-0.0247245
-0.0250695
-0.0254154
-0.0257654
-0.0261172
-0.0264656
-0.0268158
-0.0271767
-0.0275513
-0.0279287
-0.0282888
-0.0286367
-0.0289997
-0.0293797
-0.0297542
-0.0301221
-0.0304989
-0.0308857
-0.0312714
-0.0316545
-0.0320404
-0.0324311
-0.0328225
-0.0332147
-0.0336095
-0.0340066
-0.0344057
-0.0348093
-0.0352165
-0.0356249
-0.0360366
-0.0364541
-0.0368736
-0.0372937
-0.037716
-0.0381438
-0.0385731
-0.039005
-0.0394398
-0.0398806
-0.0403243
-0.0407715
-0.0412223
-0.0416773
-0.0421364
-0.0425979
-0.0430632
-0.0435313
-0.0440039
-0.0444801
-0.0449608
-0.0454463
-0.0459357
-0.0464308
-0.0469288
-0.047433
-0.0479396
-0.0484525
-0.048968
-0.0494893
-0.0500141
-0.0505443
-0.0510784
-0.0516181
-0.0521613
-0.0527114
-0.0532635
-0.0538241
-0.0543858
-0.0549565
-0.0555288
-0.0561092
-0.0566921
-0.0572826
-0.0578756
-0.0584772
-0.0590795
-0.0596928
-0.0603048
-0.0609285
-0.0615513
-0.0621842
-0.0628175
-0.0634595
-0.0641009
-0.0647524
-0.0653997
-0.0660576
-0.0667093
-0.0673681
-0.0680183
-0.0686711
-0.0693062
-0.0699365
-0.0705337
-0.0711043
-0.0716166
-0.0720552
-0.0104385
-0.00970419
-0.00613068
-0.00243608
0.000457028
0.00238843
0.00338039
0.00359355
0.00325761
0.00260037
0.00180939
0.00101621
0.000298949
-0.000305371
-0.000786502
-0.00115061
-0.00141533
-0.00160412
-0.00174217
-0.00185321
-0.00195773
-0.00207046
-0.00220096
-0.00235391
-0.00253134
-0.00273289
-0.002956
-0.00319722
-0.00345287
-0.00372076
-0.00399876
-0.00428496
-0.00457791
-0.00487698
-0.00518298
-0.00549596
-0.0058157
-0.00614234
-0.006477
-0.00682131
-0.00717591
-0.00754042
-0.00791566
-0.00830202
-0.00870089
-0.00911166
-0.00953244
-0.00996201
-0.0103969
-0.0108355
-0.0112748
-0.011711
-0.0121393
-0.0125501
-0.0129347
-0.0132818
-0.0135863
-0.01385
-0.0140773
-0.014277
-0.0144515
-0.0146026
-0.0147312
-0.0148404
-0.0149388
-0.0150319
-0.0151284
-0.0152341
-0.0153519
-0.0154886
-0.0156421
-0.0158142
-0.0160055
-0.0162078
-0.0164205
-0.0166419
-0.0168713
-0.0171152
-0.0173714
-0.0176363
-0.0179071
-0.0181798
-0.0184562
-0.0187357
-0.0190192
-0.0193102
-0.0196053
-0.0199025
-0.0202036
-0.0205073
-0.0208167
-0.0211332
-0.0214503
-0.0217637
-0.0220752
-0.0223894
-0.0227104
-0.0230391
-0.0233757
-0.0237172
-0.0240527
-0.0243829
-0.0247202
-0.025065
-0.0254108
-0.0257605
-0.0261124
-0.0264614
-0.0268121
-0.0271727
-0.027546
-0.027922
-0.0282825
-0.0286322
-0.028996
-0.0293753
-0.0297494
-0.030118
-0.0304951
-0.0308815
-0.0312668
-0.0316501
-0.0320364
-0.032427
-0.0328185
-0.0332109
-0.033606
-0.0340033
-0.0344027
-0.0348064
-0.0352136
-0.0356223
-0.0360341
-0.0364515
-0.0368711
-0.0372914
-0.0377139
-0.0381417
-0.0385712
-0.0390032
-0.0394383
-0.0398791
-0.0403229
-0.0407702
-0.0412211
-0.0416761
-0.0421352
-0.0425967
-0.0430622
-0.0435304
-0.0440031
-0.0444795
-0.0449602
-0.0454458
-0.0459352
-0.0464303
-0.0469283
-0.0474325
-0.0479392
-0.048452
-0.0489676
-0.049489
-0.0500138
-0.050544
-0.0510781
-0.0516179
-0.0521611
-0.0527112
-0.0532634
-0.053824
-0.0543858
-0.0549564
-0.0555288
-0.0561091
-0.0566921
-0.0572825
-0.0578757
-0.0584772
-0.0590797
-0.0596927
-0.060305
-0.0609285
-0.0615516
-0.0621842
-0.0628179
-0.0634595
-0.0641015
-0.0647524
-0.0654005
-0.0660578
-0.0667105
-0.0673687
-0.0680203
-0.0686724
-0.0693099
-0.0699398
-0.0705417
-0.0711141
-0.0716366
-0.0720829
-0.0109573
-0.010289
-0.00661271
-0.00267504
0.000434054
0.00249402
0.00352342
0.00371101
0.00332678
0.00262653
0.00180601
0.00099449
0.000266036
-0.000344784
-0.000828711
-0.00119245
-0.00145457
-0.00163979
-0.00177423
-0.00188218
-0.00198415
-0.0020948
-0.00222347
-0.00237478
-0.00255073
-0.0027512
-0.00297371
-0.00321487
-0.00347086
-0.00373931
-0.00401809
-0.00430504
-0.00459864
-0.00489796
-0.0052039
-0.00551663
-0.00583585
-0.0061615
-0.00649442
-0.00683633
-0.00718784
-0.00754825
-0.00791803
-0.00829751
-0.00868832
-0.00909033
-0.00950194
-0.00992232
-0.0103483
-0.0107784
-0.0112097
-0.0116381
-0.0120586
-0.0124611
-0.0128376
-0.0131789
-0.0134802
-0.0137442
-0.0139747
-0.0141809
-0.0143656
-0.0145296
-0.0146726
-0.0147947
-0.0149032
-0.0150035
-0.0151039
-0.0152125
-0.0153332
-0.0154736
-0.0156327
-0.0158096
-0.0160046
-0.0162089
-0.0164213
-0.0166413
-0.0168689
-0.0171119
-0.0173692
-0.0176353
-0.0179072
-0.0181804
-0.0184554
-0.0187327
-0.0190141
-0.0193046
-0.0196013
-0.0199002
-0.0202017
-0.0205043
-0.0208118
-0.021127
-0.021444
-0.0217582
-0.0220708
-0.0223856
-0.0227066
-0.0230347
-0.0233704
-0.0237113
-0.0240472
-0.0243779
-0.0247152
-0.0250599
-0.0254058
-0.0257553
-0.0261071
-0.0264567
-0.0268079
-0.0271683
-0.0275403
-0.0279149
-0.0282756
-0.0286271
-0.0289918
-0.0293705
-0.0297443
-0.0301135
-0.030491
-0.0308771
-0.0312619
-0.0316454
-0.0320319
-0.0324226
-0.0328142
-0.0332068
-0.0336021
-0.0339997
-0.0343994
-0.0348032
-0.0352106
-0.0356195
-0.0360314
-0.0364487
-0.0368682
-0.0372888
-0.0377114
-0.0381393
-0.038569
-0.0390013
-0.0394366
-0.0398775
-0.0403214
-0.0407688
-0.0412197
-0.0416748
-0.0421338
-0.0425954
-0.043061
-0.0435294
-0.0440023
-0.0444787
-0.0449596
-0.0454452
-0.0459347
-0.0464298
-0.0469278
-0.047432
-0.0479387
-0.0484516
-0.0489672
-0.0494885
-0.0500135
-0.0505436
-0.0510778
-0.0516176
-0.0521609
-0.052711
-0.0532632
-0.0538238
-0.0543857
-0.0549563
-0.0555287
-0.056109
-0.0566922
-0.0572824
-0.0578758
-0.0584771
-0.0590799
-0.0596926
-0.0603053
-0.0609284
-0.061552
-0.0621841
-0.0628184
-0.0634595
-0.0641022
-0.0647525
-0.0654014
-0.0660581
-0.0667119
-0.0673694
-0.0680226
-0.068674
-0.069314
-0.0699438
-0.0705501
-0.0711253
-0.0716566
-0.0721116
-0.0113703
-0.0107179
-0.00696267
-0.0028622
0.000414355
0.00260159
0.00369571
0.003878
0.00344491
0.00268597
0.0018175
0.000973927
0.000226503
-0.000394437
-0.000882223
-0.00124531
-0.00150402
-0.00168453
-0.00181421
-0.0019179
-0.00201628
-0.00212401
-0.00225018
-0.00239942
-0.00257353
-0.00277257
-0.00299418
-0.00323499
-0.00349113
-0.00375997
-0.00403939
-0.00432702
-0.0046212
-0.00492082
-0.00522672
-0.00553915
-0.00585773
-0.00618215
-0.00651304
-0.00685206
-0.00719995
-0.00755581
-0.00791961
-0.0082917
-0.00867386
-0.00906672
-0.00946907
-0.00988018
-0.0102975
-0.0107195
-0.0111436
-0.0115644
-0.0119765
-0.0123702
-0.0127382
-0.0130735
-0.0133716
-0.0136356
-0.0138695
-0.0140817
-0.0142762
-0.0144525
-0.0146098
-0.0147456
-0.0148649
-0.0149731
-0.0150779
-0.0151893
-0.015313
-0.015457
-0.0156217
-0.0158042
-0.0160031
-0.0162097
-0.0164216
-0.0166401
-0.0168661
-0.0171084
-0.0173669
-0.0176345
-0.0179075
-0.018181
-0.0184546
-0.0187295
-0.0190089
-0.0192989
-0.0195971
-0.0198977
-0.0201995
-0.0205012
-0.0208068
-0.0211207
-0.0214376
-0.0217525
-0.0220661
-0.0223816
-0.0227026
-0.0230304
-0.0233652
-0.0237054
-0.0240415
-0.0243727
-0.0247099
-0.0250546
-0.0254006
-0.0257499
-0.0261017
-0.0264519
-0.0268035
-0.0271636
-0.0275343
-0.0279074
-0.0282685
-0.0286218
-0.0289875
-0.0293657
-0.0297391
-0.0301087
-0.0304866
-0.0308723
-0.0312568
-0.0316404
-0.0320272
-0.032418
-0.0328096
-0.0332025
-0.0335981
-0.0339959
-0.0343959
-0.0347998
-0.0352074
-0.0356165
-0.0360285
-0.0364457
-0.0368652
-0.037286
-0.0377089
-0.0381369
-0.0385668
-0.0389994
-0.0394349
-0.0398758
-0.0403198
-0.0407672
-0.0412183
-0.0416734
-0.0421325
-0.0425942
-0.0430598
-0.0435284
-0.0440014
-0.0444779
-0.0449589