/*--------------------------------*- C++ -*----------------------------------*\
| =========                 |                                                 |
| \\      /  F ield         | OpenFOAM: The Open Source CFD Toolbox           |
|  \\    /   O peration     | Version:  v2012                                 |
|   \\  /    A nd           | Website:  www.openfoam.com                      |
|    \\/     M anipulation  |                                                 |
\*---------------------------------------------------------------------------*/
FoamFile
{
    version     2.0;
    format      ascii;
    class       surfaceScalarField;
    location    "0.6";
    object      phi;
}
// * * * * * * * * * * * * * * * * * * * * * * * * * * * * * * * * * * * * * //

dimensions      [0 3 -1 0 0 0 0];
oriented        oriented;


internalField   nonuniform List<scalar> 
17340
(
3.87624e-06
-1.17883e-07
3.88334e-06
8.52074e-08
3.87645e-06
-7.73497e-08
3.88398e-06
6.07479e-08
3.87662e-06
-4.81733e-08
3.88599e-06
3.79993e-08
3.87819e-06
-3.18703e-08
3.88749e-06
2.44235e-08
3.88178e-06
-2.42937e-08
3.88796e-06
1.75957e-08
3.88289e-06
-1.75216e-08
3.88628e-06
1.33779e-08
3.88227e-06
-8.71108e-09
3.88492e-06
9.54667e-09
3.88264e-06
-4.18402e-09
3.88462e-06
4.71687e-09
3.8809e-06
1.01205e-09
3.87552e-06
9.42863e-09
3.86197e-06
1.88057e-08
2.69164e-08
3.84657e-06
4.1798e-06
-1.1182e-07
4.19237e-06
7.26309e-08
4.18238e-06
-6.73564e-08
4.19271e-06
5.04171e-08
4.18357e-06
-3.90359e-08
4.19403e-06
2.75426e-08
4.1858e-06
-2.36426e-08
4.19444e-06
1.57882e-08
4.19046e-06
-2.03137e-08
4.19221e-06
1.58429e-08
4.19468e-06
-1.99929e-08
4.19344e-06
1.46237e-08
4.19537e-06
-1.06426e-08
4.19373e-06
1.11831e-08
4.19576e-06
-6.20997e-09
4.19186e-06
8.61057e-09
4.19346e-06
-5.84863e-10
4.1824e-06
2.04905e-08
4.1776e-06
2.36082e-08
4.52125e-08
4.1593e-06
4.51313e-06
-1.04885e-07
4.5245e-06
6.12571e-08
4.51393e-06
-5.67858e-08
4.52279e-06
4.15545e-08
4.51436e-06
-3.06007e-08
4.52316e-06
1.87402e-08
4.51594e-06
-1.64224e-08
4.52396e-06
7.7665e-09
4.51886e-06
-1.52166e-08
4.52413e-06
1.05818e-08
4.52108e-06
-1.69503e-08
4.52241e-06
1.32976e-08
4.52168e-06
-9.9121e-09
4.5211e-06
1.1763e-08
4.52291e-06
-8.02399e-09
4.52287e-06
8.65291e-09
4.52438e-06
-2.09244e-09
4.51084e-06
3.40324e-08
4.49467e-06
3.97733e-08
6.1449e-08
4.47843e-06
4.87412e-06
-9.80593e-08
4.88517e-06
5.02124e-08
4.87366e-06
-4.52774e-08
4.88277e-06
3.24379e-08
4.87335e-06
-2.11716e-08
4.88353e-06
8.55902e-09
4.87344e-06
-6.33959e-09
4.88703e-06
-5.82105e-09
4.8734e-06
-1.58687e-09
4.8914e-06
-7.41359e-09
4.87521e-06
-7.61537e-10
4.89363e-06
-5.12535e-09
4.87777e-06
5.94935e-09
4.8922e-06
-2.66782e-09
4.87501e-06
9.16307e-09
4.88498e-06
-1.31605e-09
4.87889e-06
3.99591e-09
4.93069e-06
-1.77617e-08
4.98244e-06
-1.19811e-08
-5.0373e-09
5.04893e-06
5.26365e-06
-9.10637e-08
5.27498e-06
3.88839e-08
5.26393e-06
-3.42324e-08
5.27128e-06
2.50896e-08
5.26507e-06
-1.49577e-08
5.26739e-06
6.23876e-09
5.26938e-06
-8.33174e-09
5.2668e-06
-3.23601e-09
5.27016e-06
-4.95186e-09
5.27001e-06
-7.25916e-09
5.26848e-06
7.66287e-10
5.26788e-06
-4.52519e-09
5.26862e-06
5.21169e-09
5.26668e-06
-7.32071e-10
5.26919e-06
6.65274e-09
5.26798e-06
-1.03041e-10
5.26673e-06
5.24538e-09
5.25453e-06
-5.56455e-09
5.23943e-06
3.11627e-09
1.31392e-08
5.22126e-06
5.68412e-06
-8.372e-08
5.69622e-06
2.67763e-08
5.68458e-06
-2.25902e-08
5.69242e-06
1.72518e-08
5.68525e-06
-7.78792e-09
5.68861e-06
2.8729e-09
5.68941e-06
-9.12953e-09
5.6863e-06
-1.21969e-10
5.69329e-06
-1.19459e-08
5.68848e-06
-2.44271e-09
5.69418e-06
-4.94032e-09
5.68688e-06
2.78091e-09
5.69162e-06
4.7203e-10
5.68534e-06
5.54827e-09
5.68859e-06
3.40084e-09
5.68211e-06
6.37481e-09
5.68654e-06
8.13351e-10
5.67563e-06
5.35136e-09
5.6722e-06
6.54614e-09
2.86255e-08
5.65671e-06
6.13833e-06
-7.61793e-08
6.15059e-06
1.45204e-08
6.14114e-06
-1.314e-08
6.14604e-06
1.23518e-08
6.14191e-06
-3.66138e-09
6.14073e-06
4.05053e-09
6.14322e-06
-1.16195e-08
6.14224e-06
8.59356e-10
6.14126e-06
-1.09684e-08
6.14425e-06
-5.4285e-09
6.14035e-06
-1.04254e-09
6.14236e-06
7.66549e-10
6.14015e-06
2.68385e-09
6.1408e-06
4.89789e-09
6.13858e-06
5.61927e-09
6.13865e-06
6.31404e-09
6.13442e-06
5.03616e-09
6.12982e-06
9.95257e-09
6.12182e-06
1.45483e-08
3.20636e-08
6.11838e-06
6.62913e-06
-6.87511e-08
6.64024e-06
3.41314e-09
6.63721e-06
-1.01058e-08
6.63457e-06
1.49911e-08
6.63745e-06
-6.54247e-09
6.62891e-06
1.2586e-08
6.63591e-06
-1.8617e-08
6.63097e-06
5.80036e-09
6.6347e-06
-1.4702e-08
6.63042e-06
-1.14251e-09
6.63317e-06
-3.79546e-09
6.63009e-06
3.84511e-09
6.63111e-06
1.66544e-09
6.62874e-06
7.27046e-09
6.62874e-06
5.61366e-09
6.62623e-06
8.82566e-09
6.62332e-06
7.94478e-09
6.61904e-06
1.42305e-08
6.61318e-06
2.04164e-08
3.40829e-08
6.61116e-06
7.15885e-06
-6.1168e-08
7.17102e-06
-8.75701e-09
7.16539e-06
-4.47671e-09
7.16941e-06
1.09663e-08
7.1576e-06
5.27292e-09
7.17109e-06
-9.1079e-10
7.1552e-06
-2.72017e-09
7.17155e-06
-1.0553e-08
7.16261e-06
-5.76582e-09
7.16363e-06
-2.15693e-09
7.16257e-06
-2.73321e-09
7.16163e-06
4.77812e-09
7.15843e-06
4.86649e-09
7.15784e-06
7.86105e-09
7.15638e-06
7.0799e-09
7.15462e-06
1.05794e-08
7.15138e-06
1.11827e-08
7.14796e-06
1.7657e-08
7.14454e-06
2.38362e-08
3.49896e-08
7.14363e-06
7.7316e-06
-5.41601e-08
7.73973e-06
-1.6887e-08
7.74229e-06
-7.04033e-09
7.73619e-06
1.70624e-08
7.73797e-06
3.49975e-09
7.73532e-06
1.73831e-09
7.73037e-06
2.23235e-09
7.73411e-06
-1.42949e-08
7.73373e-06
-5.39351e-09
7.73086e-06
7.19558e-10
7.73108e-06
-2.95717e-09
7.73101e-06
4.85471e-09
7.7296e-06
6.27139e-09
7.72856e-06
8.90186e-09
7.7269e-06
8.73814e-09
7.72524e-06
1.22398e-08
7.72228e-06
1.41443e-08
7.71965e-06
2.02821e-08
7.71713e-06
2.63588e-08
3.57111e-08
7.71641e-06
8.34958e-06
-4.72829e-08
8.35845e-06
-2.57571e-08
8.35914e-06
-7.72247e-09
8.35755e-06
1.86504e-08
8.35788e-06
3.16941e-09
8.34913e-06
1.04864e-08
8.35746e-06
-6.09599e-09
8.34748e-06
-4.31559e-09
8.35145e-06
-9.36521e-09
8.35147e-06
7.0291e-10
8.34739e-06
1.11708e-09
8.34697e-06
5.27871e-09
8.34626e-06
6.97817e-09
8.3451e-06
1.00659e-08
8.34334e-06
1.04921e-08
8.34165e-06
1.39373e-08
8.3392e-06
1.65933e-08
8.33713e-06
2.2346e-08
8.33551e-06
2.79866e-08
3.5763e-08
8.33545e-06
9.01725e-06
-4.08895e-08
9.02281e-06
-3.13148e-08
9.02384e-06
-8.74699e-09
9.02862e-06
1.38663e-08
9.01835e-06
1.34383e-08
9.02186e-06
6.97638e-09
9.02075e-06
-4.9809e-09
9.01492e-06
1.50946e-09
9.01393e-06
-8.37345e-09
9.01622e-06
-1.58637e-09
9.01415e-06
3.18865e-09
9.01267e-06
6.75107e-09
9.01186e-06
7.78853e-09
9.01098e-06
1.09453e-08
9.0093e-06
1.21793e-08
9.00766e-06
1.55708e-08
9.00565e-06
1.86107e-08
9.00413e-06
2.38627e-08
9.00303e-06
2.90871e-08
3.57824e-08
9.00301e-06
9.73828e-06
-3.50703e-08
9.7387e-06
-3.17363e-08
9.74368e-06
-1.3722e-08
9.74866e-06
8.88332e-09
9.74347e-06
1.86268e-08
9.74297e-06
7.48405e-09
9.73803e-06
-4.80888e-11
9.7378e-06
1.74712e-09
9.73348e-06
-4.05239e-09
9.73348e-06
-1.59308e-09
9.73362e-06
3.05548e-09
9.73241e-06
7.96106e-09
9.73096e-06
9.23304e-09
9.7301e-06
1.18016e-08
9.7286e-06
1.36874e-08
9.72716e-06
1.70021e-08
9.72551e-06
2.02662e-08
9.72448e-06
2.48892e-08
9.72414e-06
2.94316e-08
3.454e-08
9.72538e-06
1.05168e-05
-2.97851e-08
1.05157e-05
-3.06773e-08
1.05194e-05
-1.73589e-08
1.05238e-05
4.45935e-09
1.05262e-05
1.62216e-08
1.05185e-05
1.51484e-08
1.05161e-05
2.39354e-09
1.05169e-05
9.23875e-10
1.05123e-05
5.90538e-10
1.05095e-05
1.14957e-09
1.05095e-05
3.04216e-09
1.05094e-05
8.15751e-09
1.05079e-05
1.0653e-08
1.05068e-05
1.29406e-08
1.05055e-05
1.49627e-08
1.05043e-05
1.82e-08
1.05031e-05
2.14892e-08
1.05025e-05
2.55009e-08
1.05023e-05
2.95936e-08
3.3804e-08
1.05031e-05
1.13573e-05
-2.49289e-08
1.13547e-05
-2.80533e-08
1.13578e-05
-2.04582e-08
1.1361e-05
1.27538e-09
1.13668e-05
1.037e-08
1.13612e-05
2.07777e-08
1.13553e-05
8.26651e-09
1.1355e-05
1.20503e-09
1.13531e-05
2.53128e-09
1.13495e-05
4.73938e-09
1.13478e-05
4.78545e-09
1.13477e-05
8.21808e-09
1.13471e-05
1.12855e-08
1.13458e-05
1.41689e-08
1.13447e-05
1.6079e-08
1.13438e-05
1.91733e-08
1.1343e-05
2.22718e-08
1.13427e-05
2.58036e-08
1.13428e-05
2.94525e-08
3.42469e-08
1.13424e-05
1.22649e-05
-2.04734e-08
1.22637e-05
-2.68438e-08
1.22613e-05
-1.81116e-08
1.22661e-05
-3.47364e-09
1.22711e-05
5.3805e-09
1.22727e-05
1.91521e-08
1.22638e-05
1.71156e-08
1.22592e-05
5.82308e-09
1.22588e-05
2.93859e-09
1.22568e-05
6.73423e-09
1.22541e-05
7.50614e-09
1.22532e-05
9.136e-09
1.22528e-05
1.16845e-08
1.22521e-05
1.48724e-08
1.22511e-05
1.70594e-08
1.22504e-05
1.98661e-08
1.225e-05
2.2687e-08
1.225e-05
2.57509e-08
1.22507e-05
2.88123e-08
3.14513e-08
1.22535e-05
1.3245e-05
-1.65243e-08
1.32432e-05
-2.50686e-08
1.32404e-05
-1.53457e-08
1.32435e-05
-6.55125e-09
1.32465e-05
2.40287e-09
1.32519e-05
1.37856e-08
1.32473e-05
2.17215e-08
1.32388e-05
1.43267e-08
1.32358e-05
5.94043e-09
1.32353e-05
7.18941e-09
1.32334e-05
9.45044e-09
1.32317e-05
1.08058e-08
1.3231e-05
1.2338e-08
1.32307e-05
1.5246e-08
1.32301e-05
1.76471e-08
1.32297e-05
2.02706e-08
1.32296e-05
2.27267e-08
1.323e-05
2.53535e-08
1.32309e-05
2.79443e-08
3.1276e-08
1.32311e-05
1.43036e-05
-1.33678e-08
1.42995e-05
-2.09621e-08
1.42995e-05
-1.53557e-08
1.42983e-05
-5.41783e-09
1.43001e-05
6.37659e-10
1.43057e-05
8.17477e-09
1.43073e-05
2.01236e-08
1.42997e-05
2.19235e-08
1.42927e-05
1.29216e-08
1.42909e-05
9.06659e-09
1.42902e-05
1.01492e-08
1.42888e-05
1.21835e-08
1.42878e-05
1.33409e-08
1.42875e-05
1.55511e-08
1.42872e-05
1.78831e-08
1.42872e-05
2.03171e-08
1.42876e-05
2.23752e-08
1.42883e-05
2.46083e-08
1.42896e-05
2.66367e-08
2.81575e-08
1.42927e-05
1.54464e-05
-1.07322e-08
1.54414e-05
-1.60403e-08
1.54414e-05
-1.53208e-08
1.54399e-05
-3.87573e-09
1.54394e-05
1.1039e-09
1.5442e-05
5.61834e-09
1.54471e-05
1.50213e-08
1.54443e-05
2.46484e-08
1.54368e-05
2.04757e-08
1.54319e-05
1.39325e-08
1.54305e-05
1.15395e-08
1.54301e-05
1.2652e-08
1.54293e-05
1.41163e-08
1.54289e-05
1.58845e-08
1.5429e-05
1.78472e-08
1.54293e-05
1.99778e-08
1.543e-05
2.16573e-08
1.54311e-05
2.35016e-08
1.54327e-05
2.50961e-08
2.7261e-08
1.54336e-05
1.668e-05
-8.2632e-09
1.6676e-05
-1.20613e-08
1.66731e-05
-1.24472e-08
1.6673e-05
-3.75054e-09
1.66714e-05
2.67192e-09
1.66703e-05
6.77008e-09
1.66733e-05
1.19646e-08
1.66764e-05
2.16366e-08
1.66721e-05
2.47701e-08
1.66661e-05
1.99304e-08
1.66628e-05
1.48553e-08
1.66619e-05
1.3488e-08
1.66618e-05
1.42444e-08
1.66617e-05
1.59584e-08
1.6662e-05
1.761e-08
1.66626e-05
1.93029e-08
1.66637e-05
2.0613e-08
1.66651e-05
2.2023e-08
1.66671e-05
2.3161e-08
2.38404e-08
1.66705e-05
1.80121e-05
-5.99171e-09
1.80087e-05
-8.59206e-09
1.80044e-05
-8.15685e-09
1.80039e-05
-3.26043e-09
1.80024e-05
4.12834e-09
1.79998e-05
9.42827e-09
1.79994e-05
1.23192e-08
1.80026e-05
1.84003e-08
1.80032e-05
2.4251e-08
1.7999e-05
2.40639e-08
1.79947e-05
1.92e-08
1.79927e-05
1.5509e-08
1.79924e-05
1.45167e-08
1.79928e-05
1.55274e-08
1.79935e-05
1.69486e-08
1.79945e-05
1.83288e-08
1.79958e-05
1.92523e-08
1.79977e-05
2.0191e-08
1.79999e-05
2.0953e-08
2.21549e-08
1.80015e-05
1.94506e-05
-3.94298e-09
1.94468e-05
-4.78188e-09
1.94431e-05
-4.43493e-09
1.94406e-05
-7.5171e-10
1.94393e-05
5.46818e-09
1.9437e-05
1.16984e-08
1.94345e-05
1.48027e-08
1.94351e-05
1.78061e-08
1.94372e-05
2.21244e-08
1.94366e-05
2.47266e-08
1.94334e-05
2.2355e-08
1.94306e-05
1.83266e-08
1.94296e-05
1.54859e-08
1.943e-05
1.51028e-08
1.94311e-05
1.58849e-08
1.94325e-05
1.69005e-08
1.94342e-05
1.76066e-08
1.94364e-05
1.80193e-08
1.94389e-05
1.83882e-08
1.91533e-08
1.94419e-05
2.10039e-05
-2.03932e-09
2.1001e-05
-1.85776e-09
2.09967e-05
-1.91848e-10
2.09927e-05
3.29076e-09
2.09906e-05
7.5973e-09
2.09889e-05
1.33412e-08
2.09863e-05
1.74658e-08
2.09845e-05
1.95633e-08
2.09853e-05
2.13396e-08
2.09865e-05
2.35132e-08
2.09855e-05
2.33302e-08
2.09835e-05
2.03389e-08
2.0982e-05
1.69639e-08
2.09821e-05
1.50231e-08
2.09833e-05
1.47011e-08
2.09851e-05
1.51289e-08
2.09872e-05
1.54482e-08
2.09897e-05
1.55596e-08
2.09926e-05
1.54852e-08
1.5854e-08
2.09959e-05
2.26812e-05
-2.90553e-10
2.26787e-05
6.59945e-10
2.26742e-05
4.21514e-09
2.26695e-05
8.00896e-09
2.26662e-05
1.08963e-08
2.26645e-05
1.51223e-08
2.26622e-05
1.97651e-08
2.26597e-05
2.20211e-08
2.26587e-05
2.23438e-08
2.26594e-05
2.28058e-08
2.266e-05
2.26855e-08
2.26594e-05
2.10126e-08
2.26585e-05
1.78635e-08
2.26583e-05
1.5201e-08
2.26594e-05
1.36357e-08
2.26612e-05
1.3239e-08
2.26638e-05
1.29207e-08
2.26667e-05
1.26753e-08
2.26699e-05
1.224e-08
1.18323e-08
2.26739e-05
2.44924e-05
1.21428e-09
2.4489e-05
4.05535e-09
2.44853e-05
7.92229e-09
2.44808e-05
1.25105e-08
2.44766e-05
1.51507e-08
2.44738e-05
1.78956e-08
2.44716e-05
2.19307e-08
2.44693e-05
2.43645e-08
2.44674e-05
2.42917e-08
2.44669e-05
2.3251e-08
2.44673e-05
2.22763e-08
2.44678e-05
2.05534e-08
2.44677e-05
1.79132e-08
2.4468e-05
1.48993e-08
2.44691e-05
1.26036e-08
2.4471e-05
1.12958e-08
2.44737e-05
1.02023e-08
2.44771e-05
9.34009e-09
2.44807e-05
8.63339e-09
8.16642e-09
2.44843e-05
2.64482e-05
2.5992e-09
2.64447e-05
7.5662e-09
2.64407e-05
1.18987e-08
2.64366e-05
1.65868e-08
2.64322e-05
1.95786e-08
2.64282e-05
2.18448e-08
2.64254e-05
2.48057e-08
2.6423e-05
2.66989e-08
2.6421e-05
2.62788e-08
2.64198e-05
2.45255e-08
2.64194e-05
2.26308e-08
2.64197e-05
2.02643e-08
2.64201e-05
1.75054e-08
2.64209e-05
1.40652e-08
2.64223e-05
1.12931e-08
2.64245e-05
9.01233e-09
2.64276e-05
7.18066e-09
2.64312e-05
5.73429e-09
2.64352e-05
4.61841e-09
3.74065e-09
2.64396e-05
2.85599e-05
4.00043e-09
2.85568e-05
1.06467e-08
2.85522e-05
1.65097e-08
2.85484e-05
2.04518e-08
2.85439e-05
2.40341e-08
2.85394e-05
2.63719e-08
2.85355e-05
2.86722e-08
2.85326e-05
2.96539e-08
2.85303e-05
2.85777e-08
2.85286e-05
2.62053e-08
2.8528e-05
2.32335e-08
2.85278e-05
2.04708e-08
2.85281e-05
1.71856e-08
2.85285e-05
1.36168e-08
2.85296e-05
1.02045e-08
2.85316e-05
6.99196e-09
2.85346e-05
4.20164e-09
2.85386e-05
1.7718e-09
2.85434e-05
-1.93967e-10
-1.19898e-09
2.85483e-05
3.08402e-05
5.46441e-09
3.0837e-05
1.38328e-08
3.08329e-05
2.06573e-08
3.08287e-05
2.46046e-08
3.0824e-05
2.87647e-08
3.08191e-05
3.12437e-08
3.08149e-05
3.29111e-08
3.08113e-05
3.32716e-08
3.08078e-05
3.1999e-08
3.08049e-05
2.91992e-08
3.08032e-05
2.49272e-08
3.08028e-05
2.081e-08
3.08035e-05
1.65456e-08
3.08049e-05
1.21848e-08
3.08069e-05
8.16061e-09
3.08094e-05
4.50393e-09
3.08122e-05
1.44499e-09
3.08157e-05
-1.73626e-09
3.082e-05
-4.54691e-09
-6.60526e-09
3.08254e-05
3.33025e-05
7.04196e-09
3.32995e-05
1.68403e-08
3.32959e-05
2.42537e-08
3.32917e-05
2.88728e-08
3.32859e-05
3.44701e-08
3.32806e-05
3.65578e-08
3.32757e-05
3.78705e-08
3.32724e-05
3.65322e-08
3.32693e-05
3.51298e-08
3.32657e-05
3.27722e-08
3.32615e-05
2.91414e-08
3.32579e-05
2.43854e-08
3.32551e-05
1.93259e-08
3.32538e-05
1.34802e-08
3.32543e-05
7.67095e-09
3.32575e-05
1.36741e-09
3.32618e-05
-2.85277e-09
3.32666e-05
-6.6092e-09
3.3272e-05
-9.893e-09
-1.25517e-08
3.32779e-05
3.59612e-05
9.01165e-09
3.59589e-05
1.90763e-08
3.59554e-05
2.77536e-08
3.59515e-05
3.27673e-08
3.59455e-05
4.04563e-08
3.59395e-05
4.25815e-08
3.59321e-05
4.52607e-08
3.59271e-05
4.15139e-08
3.59227e-05
3.95526e-08
3.59203e-05
3.51929e-08
3.59179e-05
3.1589e-08
3.5916e-05
2.62129e-08
3.59142e-05
2.11514e-08
3.59129e-05
1.47999e-08
3.59116e-05
8.97735e-09
3.59101e-05
2.87572e-09
3.5911e-05
-3.7926e-09
3.59152e-05
-1.08474e-08
3.59199e-05
-1.45146e-08
-1.8536e-08
3.59259e-05
3.88317e-05
1.18036e-08
3.88311e-05
1.96223e-08
3.88265e-05
3.23311e-08
3.88217e-05
3.76143e-08
3.8817e-05
4.51647e-08
3.88148e-05
4.47592e-08
3.88102e-05
4.98521e-08
3.88027e-05
4.90455e-08
3.87931e-05
4.91862e-08
3.87837e-05
4.45353e-08
3.87739e-05
4.13561e-08
3.87653e-05
3.48345e-08
3.87574e-05
2.9063e-08
3.87518e-05
2.0429e-08
3.87485e-05
1.22329e-08
3.87496e-05
1.75405e-09
3.87511e-05
-5.24169e-09
3.8756e-05
-1.57676e-08
3.87662e-05
-2.4686e-08
-3.32423e-08
3.87809e-05
4.19305e-05
1.63815e-08
4.19383e-05
1.18161e-08
4.19258e-05
4.4808e-08
4.19225e-05
4.08742e-08
4.19095e-05
5.82227e-08
4.19056e-05
4.85918e-08
4.19018e-05
5.36558e-08
4.19045e-05
4.63415e-08
4.19023e-05
5.14347e-08
4.1901e-05
4.58694e-08
4.18942e-05
4.80843e-08
4.18873e-05
4.1714e-08
4.18768e-05
3.95719e-08
4.18663e-05
3.09318e-08
4.18527e-05
2.5856e-08
4.18375e-05
1.69938e-08
4.18208e-05
1.1461e-08
4.18045e-05
5.40934e-10
4.17893e-05
-9.51678e-09
-2.5478e-08
4.17815e-05
4.52817e-05
1.78787e-08
4.52775e-05
1.60084e-08
4.52765e-05
4.57521e-08
4.52769e-05
4.05486e-08
4.5279e-05
5.6103e-08
4.52731e-05
5.44555e-08
4.52612e-05
6.55478e-08
4.52478e-05
5.97141e-08
4.52317e-05
6.75912e-08
4.52145e-05
6.30732e-08
4.51958e-05
6.67993e-08
4.51782e-05
5.92811e-08
4.51617e-05
5.60323e-08
4.51479e-05
4.47914e-08
4.51362e-05
3.75466e-08
4.51282e-05
2.49678e-08
4.51283e-05
1.1346e-08
4.51292e-05
-3.54356e-10
4.51428e-05
-2.30738e-08
-6.17129e-08
4.5179e-05
4.89024e-05
1.41274e-08
4.88872e-05
3.11486e-08
4.88841e-05
4.88644e-08
4.88679e-05
5.6798e-08
4.88619e-05
6.20864e-08
4.88601e-05
5.61919e-08
4.88727e-05
5.29348e-08
4.88867e-05
4.5773e-08
4.89151e-05
3.91317e-08
4.89481e-05
3.00915e-08
4.89937e-05
2.12619e-08
4.90413e-05
1.16616e-08
4.90933e-05
4.01842e-09
4.91445e-05
-6.36275e-09
4.91977e-05
-1.56664e-08
4.92444e-05
-2.17563e-08
4.92766e-05
-2.08646e-08
4.92996e-05
-2.33516e-08
4.93012e-05
-2.46469e-08
-2.12537e-08
4.92607e-05
5.28042e-05
1.26717e-08
5.2807e-05
2.83494e-08
5.28137e-05
4.2123e-08
5.28211e-05
4.94497e-08
5.28172e-05
6.59137e-08
5.28012e-05
7.22567e-08
5.27763e-05
7.7808e-08
5.27455e-05
7.65371e-08
5.27117e-05
7.29764e-08
5.26787e-05
6.30425e-08
5.26488e-05
5.12316e-08
5.2624e-05
3.64154e-08
5.26052e-05
2.28666e-08
5.25902e-05
8.56254e-09
5.25776e-05
-3.0565e-09
5.25729e-05
-1.69938e-08
5.2584e-05
-3.19629e-08
5.26088e-05
-4.81485e-08
5.2649e-05
-6.49074e-08
-8.43093e-08
5.27121e-05
5.70159e-05
1.52925e-08
5.70059e-05
3.83214e-08
5.69934e-05
5.46696e-08
5.69814e-05
6.14326e-08
5.69885e-05
5.88584e-08
5.70048e-05
5.59339e-08
5.70316e-05
5.10336e-08
5.70647e-05
4.33919e-08
5.71031e-05
3.45774e-08
5.71412e-05
2.49087e-08
5.71766e-05
1.58771e-08
5.72056e-05
7.3936e-09
5.72292e-05
-7.18422e-10
5.72508e-05
-1.30373e-08
5.72688e-05
-2.11013e-08
5.7274e-05
-2.21189e-08
5.72675e-05
-2.54743e-08
5.72468e-05
-2.7501e-08
5.72098e-05
-2.78641e-08
-2.70481e-08
5.71525e-05
6.15761e-05
1.00923e-08
6.15899e-05
2.45299e-08
6.1604e-05
4.0602e-08
6.16065e-05
5.8907e-08
6.15906e-05
7.47402e-08
6.15611e-05
8.54183e-08
6.15196e-05
9.25442e-08
6.14716e-05
9.14325e-08
6.14216e-05
8.45301e-08
6.13747e-05
7.18669e-08
6.13325e-05
5.80471e-08
6.12973e-05
4.2643e-08
6.12692e-05
2.73176e-08
6.12455e-05
1.06693e-08
6.123e-05
-5.60108e-09
6.12314e-05
-2.34908e-08
6.12467e-05
-4.07848e-08
6.12774e-05
-5.8173e-08
6.13247e-05
-7.5163e-08
-9.36133e-08
6.13912e-05
6.64828e-05
1.40705e-08
6.64769e-05
3.04457e-08
6.64723e-05
4.52358e-08
6.64823e-05
4.88948e-08
6.64996e-05
5.74152e-08
6.6523e-05
6.20461e-08
6.65499e-05
6.56683e-08
6.65767e-05
6.45438e-08
6.65997e-05
6.157e-08
6.66165e-05
5.50996e-08
6.66266e-05
4.79132e-08
6.66307e-05
3.85657e-08
6.66293e-05
2.8726e-08
6.66224e-05
1.75064e-08
6.66088e-05
8.05976e-09
6.65909e-05
-5.65298e-09
6.65657e-05
-1.55316e-08
6.65318e-05
-2.4264e-08
6.64873e-05
-3.07146e-08
-3.45566e-08
6.64283e-05
7.17997e-05
9.53478e-09
7.18247e-05
5.40246e-09
7.18408e-05
2.92129e-08
7.18508e-05
3.88295e-08
7.18396e-05
6.8687e-08
7.18178e-05
8.37829e-08
7.1775e-05
1.08487e-07
7.17214e-05
1.18162e-07
7.1652e-05
1.30973e-07
7.15774e-05
1.29699e-07
7.14975e-05
1.27795e-07
7.14215e-05
1.14541e-07
7.13498e-05
1.00421e-07
7.12919e-05
7.5395e-08
7.12486e-05
5.1362e-08
7.12142e-05
2.87501e-08
7.11895e-05
9.20142e-09
7.1185e-05
-1.97902e-08
7.12083e-05
-5.39393e-08
-9.39534e-08
7.12676e-05
7.75223e-05
7.75429e-05
7.75622e-05
7.75957e-05
7.76259e-05
7.76589e-05
7.76796e-05
7.7693e-05
7.76895e-05
7.76748e-05
7.7644e-05
7.7603e-05
7.75472e-05
7.7472e-05
7.73859e-05
7.73024e-05
7.72263e-05
7.71597e-05
7.7106e-05
7.70499e-05
3.81871e-06
2.78584e-08
3.78391e-06
3.47985e-08
3.74711e-06
3.68015e-08
3.70399e-06
4.31232e-08
3.65508e-06
4.89073e-08
3.60396e-06
5.11215e-08
3.55383e-06
5.01258e-08
3.50614e-06
4.76903e-08
3.46044e-06
4.56983e-08
3.41531e-06
4.51316e-08
3.36953e-06
4.57848e-08
3.3228e-06
4.67238e-08
3.27527e-06
4.75274e-08
3.22706e-06
4.82129e-08
3.17824e-06
4.88185e-08
3.12885e-06
4.9392e-08
3.0789e-06
4.99517e-08
3.02838e-06
5.05143e-08
2.97731e-06
5.10703e-08
2.92572e-06
5.1598e-08
2.87362e-06
5.20924e-08
2.82108e-06
5.25429e-08
2.76811e-06
5.29686e-08
2.71475e-06
5.33648e-08
2.66099e-06
5.37532e-08
2.60687e-06
5.41272e-08
2.55236e-06
5.45062e-08
2.49748e-06
5.48769e-08
2.44224e-06
5.52447e-08
2.38665e-06
5.55942e-08
2.33072e-06
5.5928e-08
2.27447e-06
5.62424e-08
2.21795e-06
5.65278e-08
2.16116e-06
5.67866e-08
2.10415e-06
5.70089e-08
2.04694e-06
5.7215e-08
1.98953e-06
5.74079e-08
1.93195e-06
5.75791e-08
1.8742e-06
5.77509e-08
1.81632e-06
5.788e-08
1.75831e-06
5.80076e-08
1.70026e-06
5.80546e-08
1.64228e-06
5.79798e-08
1.58455e-06
5.77305e-08
1.52737e-06
5.71788e-08
1.47101e-06
5.63547e-08
1.41589e-06
5.51251e-08
1.3623e-06
5.35919e-08
1.31047e-06
5.1826e-08
1.26079e-06
4.96789e-08
1.21336e-06
4.74282e-08
1.16855e-06
4.48108e-08
1.1267e-06
4.1855e-08
1.0881e-06
3.86004e-08
1.05329e-06
3.48024e-08
1.02254e-06
3.07543e-08
9.95974e-07
2.65653e-08
9.7361e-07
2.23645e-08
9.55091e-07
1.85187e-08
9.39927e-07
1.51643e-08
9.27611e-07
1.2316e-08
9.17778e-07
9.83288e-09
9.09928e-07
7.84961e-09
9.03549e-07
6.37896e-09
8.98348e-07
5.20102e-09
8.93926e-07
4.42225e-09
8.90061e-07
3.8653e-09
8.86693e-07
3.36821e-09
8.83573e-07
3.11973e-09
8.80666e-07
2.9073e-09
8.77913e-07
2.75287e-09
8.75071e-07
2.8414e-09
8.72017e-07
3.05384e-09
8.68641e-07
3.37683e-09
8.64943e-07
3.69713e-09
8.60997e-07
3.94671e-09
8.56848e-07
4.14888e-09
8.52583e-07
4.26456e-09
8.48232e-07
4.35087e-09
8.43768e-07
4.46424e-09
8.39204e-07
4.56422e-09
8.34491e-07
4.71297e-09
8.29638e-07
4.85254e-09
8.24734e-07
4.90465e-09
8.19855e-07
4.87856e-09
8.15093e-07
4.76224e-09
8.10454e-07
4.63922e-09
8.05828e-07
4.6262e-09
8.0113e-07
4.69709e-09
7.96372e-07
4.75833e-09
7.9162e-07
4.75166e-09
7.87005e-07
4.6156e-09
7.82616e-07
4.38909e-09
7.78452e-07
4.16426e-09
7.74415e-07
4.03678e-09
7.70387e-07
4.02798e-09
7.66307e-07
4.08028e-09
7.62196e-07
4.11074e-09
7.58126e-07
4.06952e-09
7.54236e-07
3.89032e-09
7.50611e-07
3.62451e-09
7.47121e-07
3.4902e-09
7.43649e-07
3.47208e-09
7.40229e-07
3.42004e-09
7.36892e-07
3.33691e-09
7.33632e-07
3.26049e-09
7.30534e-07
3.09778e-09
7.27598e-07
2.93547e-09
7.24732e-07
2.86629e-09
7.21837e-07
2.89477e-09
7.18953e-07
2.8843e-09
7.16282e-07
2.6713e-09
7.13973e-07
2.30841e-09
7.11808e-07
2.16583e-09
7.0956e-07
2.24713e-09
7.07344e-07
2.21679e-09
7.05353e-07
1.99106e-09
7.03495e-07
1.85741e-09
7.01665e-07
1.82989e-09
6.99888e-07
1.77762e-09
6.98271e-07
1.61685e-09
6.96777e-07
1.49427e-09
6.95381e-07
1.39568e-09
6.94054e-07
1.32652e-09
6.92851e-07
1.20287e-09
6.9173e-07
1.12106e-09
6.90709e-07
1.02173e-09
6.89759e-07
9.49734e-10
6.88892e-07
8.67264e-10
6.88066e-07
8.25257e-10
6.87329e-07
7.37515e-10
6.86657e-07
6.72084e-10
6.86041e-07
6.16031e-10
6.85455e-07
5.86233e-10
6.84959e-07
4.95666e-10
6.84516e-07
4.42509e-10
6.84128e-07
3.88599e-10
6.83749e-07
3.78859e-10
6.83455e-07
2.94234e-10
6.83177e-07
2.77528e-10
6.8296e-07
2.17331e-10
6.82726e-07
2.34281e-10
6.82567e-07
1.59012e-10
6.82398e-07
1.68811e-10
6.82289e-07
1.08976e-10
6.82158e-07
1.30441e-10
6.82085e-07
7.30825e-11
6.82007e-07
7.81753e-11
6.81973e-07
3.44913e-11
6.81934e-07
3.87361e-11
6.8192e-07
1.40366e-11
6.81902e-07
1.81875e-11
6.81896e-07
5.36871e-12
6.81882e-07
1.44996e-11
6.81885e-07
-3.02365e-12
6.8187e-07
1.46742e-11
6.8189e-07
-1.9735e-11
6.81875e-07
1.46446e-11
6.81915e-07
-4.01451e-11
6.81902e-07
1.28335e-11
6.8196e-07
-5.70791e-11
6.81951e-07
8.49803e-12
6.82017e-07
-6.55367e-11
6.82013e-07
3.36445e-12
6.82081e-07
-6.81359e-11
6.82079e-07
2.26672e-12
6.82151e-07
-7.21779e-11
6.8214e-07
1.09278e-11
6.82222e-07
-8.17861e-11
6.82193e-07
2.87556e-11
6.82287e-07
-9.33719e-11
6.82238e-07
4.86376e-11
6.82336e-07
-9.80928e-11
6.82275e-07
6.11695e-11
6.82368e-07
-9.2808e-11
6.82299e-07
6.86962e-11
6.82384e-07
-8.52478e-11
6.823e-07
8.39842e-11
6.82387e-07
-8.64831e-11
6.82272e-07
1.14763e-10
6.82367e-07
-9.48856e-11
6.82216e-07
1.51321e-10
6.82309e-07
-9.28003e-11
6.82127e-07
1.81557e-10
6.82199e-07
-7.19016e-11
6.81982e-07
2.17219e-10
6.82025e-07
-4.34696e-11
6.81735e-07
2.90606e-10
6.81742e-07
-7.83146e-12
6.81323e-07
4.19696e-10
6.81243e-07
7.94645e-11
6.80616e-07
6.27473e-10
6.80324e-07
2.92127e-10
6.79314e-07
1.00971e-09
6.78514e-07
7.99777e-10
6.76792e-07
1.72196e-09
6.74506e-07
2.28642e-09
6.71423e-07
3.08232e-09
6.65078e-07
6.34504e-09
1.60211e-08
4.16047e-06
2.66891e-08
4.1781e-06
1.71708e-08
4.18925e-06
2.56433e-08
4.19014e-06
4.22415e-08
4.18421e-06
5.48338e-08
4.17726e-06
5.8076e-08
4.1716e-06
5.57773e-08
4.16784e-06
5.14549e-08
4.16507e-06
4.84699e-08
4.16219e-06
4.80136e-08
4.15851e-06
4.94642e-08
4.15371e-06
5.15229e-08
4.14786e-06
5.33737e-08
4.1412e-06
5.48765e-08
4.13386e-06
5.6151e-08
4.12593e-06
5.73254e-08
4.11736e-06
5.85203e-08
4.10811e-06
5.97657e-08
4.09812e-06
6.10608e-08
4.08736e-06
6.23554e-08
4.07583e-06
6.36291e-08
4.06351e-06
6.48591e-08
4.05043e-06
6.60515e-08
4.03657e-06
6.72196e-08
4.02196e-06
6.83683e-08
4.00656e-06
6.95252e-08
3.99038e-06
7.06865e-08
3.97338e-06
7.18728e-08
3.95557e-06
7.30624e-08
3.9369e-06
7.42614e-08
3.91737e-06
7.54531e-08
3.89697e-06
7.66449e-08
3.87568e-06
7.78203e-08
3.85349e-06
7.89773e-08
3.83038e-06
8.01132e-08
3.80636e-06
8.12352e-08
3.7814e-06
8.2373e-08
3.75549e-06
8.34905e-08
3.72861e-06
8.46309e-08
3.70076e-06
8.57309e-08
3.67194e-06
8.68255e-08
3.64214e-06
8.78545e-08
3.61143e-06
8.86923e-08
3.57982e-06
8.93321e-08
3.54746e-06
8.95394e-08
3.51446e-06
8.9359e-08
3.48092e-06
8.86649e-08
3.44706e-06
8.74561e-08
3.41292e-06
8.59584e-08
3.37875e-06
8.38519e-08
3.34465e-06
8.15322e-08
3.31073e-06
7.87313e-08
3.27727e-06
7.53068e-08
3.24448e-06
7.13927e-08
3.21258e-06
6.66999e-08
3.18183e-06
6.15113e-08
3.15239e-06
5.60059e-08
3.12437e-06
5.03799e-08
3.0979e-06
4.49939e-08
3.07296e-06
4.00953e-08
3.04933e-06
3.59473e-08
3.02689e-06
3.22773e-08
3.0055e-06
2.92419e-08
2.98496e-06
2.69133e-08
2.96512e-06
2.50425e-08
2.94583e-06
2.37109e-08
2.92704e-06
2.2658e-08
2.90867e-06
2.17416e-08
2.8907e-06
2.10842e-08
2.87305e-06
2.05616e-08
2.85558e-06
2.02196e-08
2.83833e-06
2.00904e-08
2.82108e-06
2.03014e-08
2.80374e-06
2.07235e-08
2.78638e-06
2.1056e-08
2.76895e-06
2.13774e-08
2.75157e-06
2.15245e-08
2.73432e-06
2.15139e-08
2.71714e-06
2.15303e-08
2.70007e-06
2.15366e-08
2.68304e-06
2.15903e-08
2.66602e-06
2.17333e-08
2.64903e-06
2.18456e-08
2.63207e-06
2.18694e-08
2.61526e-06
2.16897e-08
2.59867e-06
2.13474e-08
2.58228e-06
2.10267e-08
2.56606e-06
2.08485e-08
2.54992e-06
2.08408e-08
2.53384e-06
2.08391e-08
2.51789e-06
2.06933e-08
2.50217e-06
2.03438e-08
2.48672e-06
1.98404e-08
2.47156e-06
1.9316e-08
2.4567e-06
1.89008e-08
2.4421e-06
1.86301e-08
2.42766e-06
1.85199e-08
2.41335e-06
1.84203e-08
2.39926e-06
1.81623e-08
2.38544e-06
1.77017e-08
2.37193e-06
1.7139e-08
2.35873e-06
1.66942e-08
2.34584e-06
1.636e-08
2.33325e-06
1.60074e-08
2.32096e-06
1.56255e-08
2.309e-06
1.52184e-08
2.29739e-06
1.47072e-08
2.28603e-06
1.43018e-08
2.2748e-06
1.4089e-08
2.26376e-06
1.39375e-08
2.25308e-06
1.3564e-08
2.24298e-06
1.27746e-08
2.23352e-06
1.17664e-08
2.22449e-06
1.12001e-08
2.21566e-06
1.10739e-08
2.20708e-06
1.07958e-08
2.19888e-06
1.0191e-08
2.191e-06
9.74253e-09
2.18336e-06
9.46981e-09
2.17602e-06
9.11716e-09
2.16909e-06
8.54428e-09
2.16254e-06
8.04204e-09
2.15634e-06
7.59648e-09
2.15047e-06
7.19328e-09
2.14498e-06
6.69699e-09
2.13981e-06
6.29433e-09
2.13495e-06
5.87617e-09
2.13038e-06
5.51979e-09
2.1261e-06
5.14584e-09
2.12208e-06
4.84814e-09
2.11833e-06
4.48642e-09
2.11483e-06
4.17695e-09
2.11156e-06
3.87918e-09
2.10853e-06
3.62033e-09
2.10576e-06
3.26784e-09
2.1032e-06
2.99919e-09
2.10085e-06
2.73673e-09
2.09868e-06
2.55329e-09
2.09672e-06
2.25692e-09
2.0949e-06
2.09069e-09
2.09327e-06
1.85165e-09
2.09175e-06
1.75211e-09
2.09041e-06
1.49549e-09
2.08918e-06
1.40343e-09
2.0881e-06
1.18757e-09
2.08711e-06
1.12466e-09
2.08626e-06
9.14644e-10
2.08552e-06
8.27428e-10
2.0849e-06
6.51302e-10
2.08436e-06
5.78481e-10
2.08391e-06
4.59692e-10
2.08352e-06
4.13019e-10
2.08318e-06
3.42558e-10
2.08287e-06
3.23623e-10
2.08261e-06
2.57825e-10
2.08237e-06
2.59263e-10
2.08218e-06
1.66486e-10
2.082e-06
1.93714e-10
2.08189e-06
6.75515e-11
2.08178e-06
1.23092e-10
2.08175e-06
-2.24184e-11
2.0817e-06
5.30385e-11
2.08173e-06
-8.9447e-11
2.08174e-06
-7.94181e-12
2.08181e-06
-1.35107e-10
2.08186e-06
-5.17095e-11
2.08196e-06
-1.69648e-10
2.08204e-06
-7.09957e-11
2.08216e-06
-1.99009e-10
2.08225e-06
-6.7241e-11
2.08238e-06
-2.20278e-10
2.08248e-06
-5.0729e-11
2.0826e-06
-2.21893e-10
2.0827e-06
-3.88598e-11
2.08281e-06
-1.9547e-10
2.08291e-06
-3.26886e-11
2.08297e-06
-1.49095e-10
2.08307e-06
-1.20017e-11
2.08309e-06
-1.09344e-10
2.08316e-06
4.71478e-11
2.08316e-06
-9.53495e-11
2.08317e-06
1.41429e-10
2.08316e-06
-8.61834e-11
2.0831e-06
2.43473e-10
2.08308e-06
-5.01214e-11
2.08294e-06
3.56283e-10
2.08289e-06
5.69336e-12
2.08263e-06
5.48848e-10
2.08256e-06
6.70883e-11
2.0821e-06
8.80058e-10
2.08196e-06
2.1784e-10
2.08118e-06
1.40314e-09
2.08086e-06
6.17507e-10
2.07953e-06
2.33388e-09
2.07876e-06
1.57464e-09
2.07631e-06
4.16909e-09
2.0745e-06
4.09599e-09
2.06899e-06
8.59021e-09
2.06459e-06
1.07432e-08
3.25436e-08
4.49465e-06
1.04753e-08
4.51079e-06
1.02434e-09
4.52092e-06
1.55146e-08
4.5178e-06
4.53615e-08
4.51494e-06
5.7693e-08
4.51381e-06
5.92075e-08
4.5147e-06
5.4887e-08
4.51623e-06
4.99259e-08
4.51734e-06
4.73598e-08
4.51825e-06
4.71073e-08
4.51925e-06
4.84652e-08
4.52025e-06
5.05176e-08
4.52105e-06
5.25809e-08
4.52159e-06
5.43302e-08
4.52195e-06
5.57946e-08
4.52218e-06
5.70942e-08
4.52231e-06
5.83917e-08
4.52232e-06
5.97509e-08
4.5222e-06
6.11861e-08
4.5219e-06
6.26538e-08
4.52142e-06
6.41128e-08
4.52073e-06
6.55445e-08
4.51985e-06
6.69276e-08
4.51878e-06
6.82966e-08
4.51751e-06
6.96335e-08
4.51604e-06
7.0997e-08