/*--------------------------------*- C++ -*----------------------------------*\
| =========                 |                                                 |
| \\      /  F ield         | OpenFOAM: The Open Source CFD Toolbox           |
|  \\    /   O peration     | Version:  v2012                                 |
|   \\  /    A nd           | Website:  www.openfoam.com                      |
|    \\/     M anipulation  |                                                 |
\*---------------------------------------------------------------------------*/
FoamFile
{
    version     2.0;
    format      ascii;
    class       volVectorField;
    location    "0.6";
    object      U;
}
// * * * * * * * * * * * * * * * * * * * * * * * * * * * * * * * * * * * * * //

dimensions      [0 1 -1 0 0 0 0];


internalField   nonuniform List<vector> 
8800
(
(0.964781 -0.00121482 0)
(1.03446 0.00103776 0)
(0.968225 -0.0010188 0)
(1.03136 0.000906916 0)
(0.972182 -0.000808447 0)
(1.02852 0.000750168 0)
(0.975851 -0.000685093 0)
(1.02598 0.00062358 0)
(0.979423 -0.000614508 0)
(1.02374 0.000522819 0)
(0.9828 -0.000528547 0)
(1.02181 0.000460589 0)
(0.98598 -0.000367709 0)
(1.02019 0.000396523 0)
(0.988969 -0.000238651 0)
(1.01891 0.000273082 0)
(0.991898 -0.000118605 0)
(1.01814 0.000234803 0)
(0.995167 0.000336031 0)
(1.01912 0.000854754 0)
(0.986782 -0.00112902 0)
(1.01128 0.000812208 0)
(0.989923 -0.000811545 0)
(1.00896 0.000649788 0)
(0.993075 -0.000533434 0)
(1.00714 0.000406528 0)
(0.99556 -0.000345328 0)
(1.00581 0.000237861 0)
(0.997687 -0.000286469 0)
(1.00497 0.000189153 0)
(0.999507 -0.000259421 0)
(1.00454 0.000157787 0)
(1.00109 -7.83824e-05 0)
(1.00449 0.00011586 0)
(1.0025 1.63952e-05 0)
(1.00476 2.11132e-05 0)
(1.00393 0.000255744 0)
(1.00554 0.000423109 0)
(1.00592 0.00104932 0)
(1.00819 0.000890442 0)
(0.997415 -0.00108676 0)
(1.00137 0.000733558 0)
(0.997809 -0.000753379 0)
(1.00068 0.000611511 0)
(0.998703 -0.000523638 0)
(1.0005 0.000395625 0)
(0.999392 -0.000408871 0)
(1.00056 0.000301619 0)
(1.00007 -0.000492011 0)
(1.00085 0.000468872 0)
(1.00076 -0.000630252 0)
(1.00134 0.000624401 0)
(1.0015 -0.000513711 0)
(1.002 0.000616693 0)
(1.00232 -0.00048867 0)
(1.00286 0.000540459 0)
(1.0034 -0.000338243 0)
(1.00411 0.00174177 0)
(1.00499 0.00191422 0)
(1.00681 0.00500597 0)
(0.9997 -0.00105553 0)
(0.999555 0.000651545 0)
(0.999111 -0.000642071 0)
(0.99934 0.000514405 0)
(0.999337 -0.000387265 0)
(0.999538 0.000226087 0)
(0.999627 -0.000188526 0)
(0.999831 1.67375e-05 0)
(1.00005 -0.000179693 0)
(1.00023 3.58902e-05 0)
(1.00054 -0.000255072 0)
(1.0008 9.93469e-05 0)
(1.00116 -5.94638e-05 0)
(1.00149 0.000141643 0)
(1.00192 2.37654e-05 0)
(1.00238 0.000154655 0)
(1.00315 6.38908e-05 0)
(1.00404 0.000209632 0)
(1.00532 0.000239223 0)
(1.00635 0.00109247 0)
(0.999975 -0.000872652 0)
(0.999398 0.000390233 0)
(0.999238 -0.000376205 0)
(0.999244 0.000263077 0)
(0.999362 -0.000147579 0)
(0.99949 -1.56489e-05 0)
(0.999608 2.51678e-05 0)
(0.999799 -0.000280672 0)
(0.999997 0.000156553 0)
(1.00019 -0.000419195 0)
(1.00047 0.000261886 0)
(1.00076 -0.000428638 0)
(1.00109 0.000435786 0)
(1.00144 -0.000354488 0)
(1.00184 0.000538036 0)
(1.00234 -0.000301553 0)
(1.00291 0.000456353 0)
(1.00362 -0.00106769 0)
(1.00466 -0.000536308 0)
(1.00682 -0.00165788 0)
(1 -0.000987282 0)
(0.999401 0.000496425 0)
(0.999266 -0.000480427 0)
(0.999242 0.000434548 0)
(0.999379 -0.000317056 0)
(0.999488 0.000243495 0)
(0.999623 -0.000340246 0)
(0.999801 0.000171611 0)
(1.00001 -0.000399266 0)
(1.0002 0.000136711 0)
(1.00049 -0.000260946 0)
(1.00076 0.000251935 0)
(1.0011 -0.000146742 0)
(1.00144 0.000335383 0)
(1.00184 -6.41393e-05 0)
(1.00231 0.000329284 0)
(1.00291 -0.000186228 0)
(1.00379 0.000359473 0)
(1.00517 0.000485345 0)
(1.00774 0.00252073 0)
(1 -0.000686562 0)
(0.999435 8.80892e-05 0)
(0.999275 -3.05899e-05 0)
(0.999268 -2.54916e-05 0)
(0.999381 0.000133856 0)
(0.999505 -0.000181042 0)
(0.999635 2.52093e-05 0)
(0.99981 -0.000184519 0)
(1.00002 -8.9117e-05 0)
(1.00022 -0.000245927 0)
(1.0005 5.49308e-05 0)
(1.00079 -0.000108018 0)
(1.00113 0.000175242 0)
(1.00146 2.92925e-05 0)
(1.00186 0.000263746 0)
(1.00232 0.000121498 0)
(1.00295 0.000239028 0)
(1.00379 0.000262082 0)
(1.00525 0.00039195 0)
(1.00794 0.00111939 0)
(1 -0.000824993 0)
(0.999478 0.000200515 0)
(0.999291 -0.000255239 0)
(0.999289 0.000330716 0)
(0.999396 -0.000240043 0)
(0.999515 0.000330359 0)
(0.999654 -0.000439598 0)
(0.999825 0.000229947 0)
(1.00004 -0.000350402 0)
(1.00025 1.05328e-05 0)
(1.00053 -0.000113631 0)
(1.00082 0.000143426 0)
(1.00115 -1.48887e-05 0)
(1.00149 0.000237613 0)
(1.00188 0.000135466 0)
(1.00234 0.000308966 0)
(1.00297 0.000213628 0)
(1.00387 0.000479273 0)
(1.00545 0.000788615 0)
(1.00834 0.00169556 0)
(1 -0.000576109 0)
(0.999511 -0.000119598 0)
(0.999329 -1.60468e-05 0)
(0.999305 9.86628e-05 0)
(0.999425 3.48181e-05 0)
(0.999518 7.44166e-05 0)
(0.999669 -0.000183741 0)
(0.999854 -6.17313e-05 0)
(1.00004 -0.000160735 0)
(1.00029 -7.62575e-05 0)
(1.00057 -5.02346e-05 0)
(1.00084 8.97099e-05 0)
(1.00119 0.00010513 0)
(1.00152 0.000224663 0)
(1.00192 0.000212134 0)
(1.00237 0.000340393 0)
(1.00303 0.000358941 0)
(1.00399 0.000667391 0)
(1.00567 0.00103762 0)
(1.00869 0.00183273 0)
(1 -0.000619569 0)
(0.99957 -0.000102163 0)
(0.999357 -6.71317e-05 0)
(0.999341 0.000149851 0)
(0.999441 0.000135655 0)
(0.999537 -0.000102108 0)
(0.999687 9.75927e-05 0)
(0.999873 -0.000303688 0)
(1.00008 -9.58156e-05 0)
(1.00032 4.41656e-06 0)
(1.00061 -9.92211e-05 0)
(1.00089 0.000116336 0)
(1.00123 0.000167146 0)
(1.00156 0.00027047 0)
(1.00196 0.000275205 0)
(1.00242 0.000400868 0)
(1.00311 0.000491544 0)
(1.00413 0.000793736 0)
(1.00589 0.00119408 0)
(1.00901 0.00186476 0)
(1 -0.000494865 0)
(0.99961 -0.000240122 0)
(0.999409 -0.000123517 0)
(0.999379 0.000310565 0)
(0.99945 -2.32032e-05 0)
(0.999569 0.000148127 0)
(0.999692 -2.04347e-05 0)
(0.999882 -0.000171513 0)
(1.00014 -0.000153543 0)
(1.00034 3.78713e-05 0)
(1.00064 -1.41244e-05 0)
(1.00094 0.000123696 0)
(1.00127 0.000172247 0)
(1.0016 0.000280362 0)
(1.00201 0.000308482 0)
(1.00249 0.000454734 0)
(1.00321 0.000587527 0)
(1.00427 0.000891466 0)
(1.00611 0.00128072 0)
(1.0093 0.00186273 0)
(1 -0.000428874 0)
(0.999665 -0.000347635 0)
(0.999474 -7.6015e-05 0)
(0.999407 0.00021165 0)
(0.999485 9.82122e-05 0)
(0.999595 0.000187679 0)
(0.999702 -0.000159218 0)
(0.999914 1.66462e-06 0)
(1.00018 -0.000189294 0)
(1.0004 -2.10053e-05 0)
(1.00069 6.81412e-05 0)
(1.00099 0.000168161 0)
(1.00132 0.000206625 0)
(1.00165 0.00031074 0)
(1.00207 0.000366578 0)
(1.00256 0.000521231 0)
(1.00332 0.000678787 0)
(1.00443 0.00097547 0)
(1.00633 0.00134026 0)
(1.00958 0.00185296 0)
(1 -0.000380783 0)
(0.999715 -0.000351891 0)
(0.999537 -0.000126477 0)
(0.999467 0.000119751 0)
(0.999516 0.000307278 0)
(0.999598 4.93693e-05 0)
(0.999735 -2.71222e-05 0)
(0.999942 5.02241e-05 0)
(1.0002 -0.000119217 0)
(1.00046 -5.57999e-05 0)
(1.00075 6.87756e-05 0)
(1.00104 0.000195906 0)
(1.00138 0.000246014 0)
(1.00171 0.000345314 0)
(1.00214 0.000419248 0)
(1.00265 0.000576795 0)
(1.00343 0.000751944 0)
(1.00459 0.0010364 0)
(1.00654 0.0013749 0)
(1.00985 0.00181961 0)
(1 -0.000325686 0)
(0.999763 -0.00033409 0)
(0.999598 -0.000193102 0)
(0.999531 8.64672e-05 0)
(0.99954 0.000255255 0)
(0.999615 0.000168501 0)
(0.99977 2.47491e-05 0)
(0.999963 2.53468e-05 0)
(1.00023 -1.90922e-05 0)
(1.00051 -1.63621e-05 0)
(1.00081 5.84702e-05 0)
(1.0011 0.000194479 0)
(1.00143 0.000280583 0)
(1.00177 0.000378287 0)
(1.00221 0.00047079 0)
(1.00275 0.000622381 0)
(1.00356 0.00081087 0)
(1.00475 0.00107504 0)
(1.00674 0.00139054 0)
(1.0101 0.00177087 0)
(1 -0.000266632 0)
(0.999799 -0.000318172 0)
(0.999659 -0.000236507 0)
(0.999596 3.74275e-05 0)
(0.999595 0.00016918 0)
(0.999627 0.000330712 0)
(0.999776 6.99987e-05 0)
(0.999999 -3.3701e-06 0)
(1.00026 4.20174e-05 0)
(1.00054 8.04439e-05 0)
(1.00086 8.5873e-05 0)
(1.00117 0.000197486 0)
(1.00149 0.000294635 0)
(1.00183 0.000412251 0)
(1.00229 0.000509376 0)
(1.00284 0.000666526 0)
(1.00368 0.00084855 0)
(1.00492 0.0011017 0)
(1.00694 0.0013846 0)
(1.01033 0.00172251 0)
(1 -0.000241482 0)
(0.999834 -0.000278659 0)
(0.999712 -0.000236754 0)
(0.999654 -1.2023e-05 0)
(0.999652 0.000101224 0)
(0.999659 0.000318098 0)
(0.999771 0.000239357 0)
(1.00002 4.4382e-05 0)
(1.00031 4.21697e-05 0)
(1.00058 0.000135614 0)
(1.00091 0.000161462 0)
(1.00122 0.000224216 0)
(1.00156 0.000310821 0)
(1.0019 0.000429497 0)
(1.00236 0.000538807 0)
(1.00294 0.000692691 0)
(1.00381 0.000871655 0)
(1.00507 0.00110583 0)
(1.00713 0.00136458 0)
(1.01055 0.00166052 0)
(1 -0.000173066 0)
(0.999863 -0.000300293 0)
(0.999761 -0.000184875 0)
(0.99971 -7.64124e-05 0)
(0.999714 4.8034e-05 0)
(0.999712 0.000240342 0)
(0.99978 0.000358283 0)
(1.00002 0.000193996 0)
(1.00034 6.4089e-05 0)
(1.00063 0.000131006 0)
(1.00095 0.000202816 0)
(1.00127 0.000265615 0)
(1.00162 0.000337215 0)
(1.00198 0.00044975 0)
(1.00245 0.000564759 0)
(1.00305 0.000713182 0)
(1.00394 0.000883595 0)
(1.00523 0.00109584 0)
(1.00731 0.00132867 0)
(1.01076 0.00158582 0)
(0.999999 -0.000148137 0)
(0.999897 -0.000261415 0)
(0.99981 -0.000173339 0)
(0.999756 -8.13368e-05 0)
(0.999773 1.02067e-05 0)
(0.999782 0.000151603 0)
(0.99982 0.000356907 0)
(1.00001 0.00037082 0)
(1.00035 0.000192158 0)
(1.00068 0.000158467 0)
(1.001 0.000216637 0)
(1.00132 0.000298131 0)
(1.00168 0.000367926 0)
(1.00205 0.00047254 0)
(1.00253 0.00058337 0)
(1.00315 0.000723691 0)
(1.00406 0.00088057 0)
(1.00538 0.00107124 0)
(1.00748 0.00127623 0)
(1.01095 0.00150023 0)
(1 -0.000124141 0)
(0.999919 -0.00018824 0)
(0.999849 -0.000195501 0)
(0.999802 -5.53146e-05 0)
(0.999818 1.15573e-05 0)
(0.999845 8.69318e-05 0)
(0.999887 0.000272365 0)
(1.00003 0.000443193 0)
(1.00034 0.000365035 0)
(1.00069 0.000249032 0)
(1.00105 0.0002356 0)
(1.00138 0.000299093 0)
(1.00175 0.000378644 0)
(1.00212 0.000479811 0)
(1.00262 0.000591165 0)
(1.00325 0.000721755 0)
(1.00419 0.000866286 0)
(1.00552 0.00103352 0)
(1.00765 0.00121187 0)
(1.01113 0.0014028 0)
(1 -9.65704e-05 0)
(0.999933 -0.000148174 0)
(0.999883 -0.000170127 0)
(0.999844 -4.98e-05 0)
(0.999851 2.52681e-05 0)
(0.999891 9.06619e-05 0)
(0.999958 0.000199063 0)
(1.00008 0.000408009 0)
(1.00034 0.000473062 0)
(1.00068 0.000396662 0)
(1.00107 0.000314497 0)
(1.00143 0.000321499 0)
(1.00181 0.000379795 0)
(1.00219 0.000476816 0)
(1.0027 0.000583759 0)
(1.00335 0.000705554 0)
(1.0043 0.000834128 0)
(1.00565 0.000979067 0)
(1.00779 0.00112929 0)
(1.01129 0.00128968 0)
(1 -6.79994e-05 0)
(0.999946 -0.000116107 0)
(0.99991 -0.000119576 0)
(0.999883 -5.02415e-05 0)
(0.99989 4.77563e-05 0)
(0.999929 0.000132471 0)
(1.00001 0.000199037 0)
(1.00015 0.000338739 0)
(1.00037 0.000477003 0)
(1.00067 0.000495324 0)
(1.00106 0.000424209 0)
(1.00144 0.000373956 0)
(1.00186 0.000387758 0)
(1.00226 0.000460331 0)
(1.00278 0.000559497 0)
(1.00344 0.0006703 0)
(1.0044 0.000785116 0)
(1.00577 0.000907879 0)
(1.00792 0.00103376 0)
(1.01143 0.00116452 0)
(1 -5.03636e-05 0)
(0.999957 -7.14778e-05 0)
(0.999931 -7.05795e-05 0)
(0.999915 -3.09444e-05 0)
(0.999929 6.32799e-05 0)
(0.999965 0.000164369 0)
(1.00005 0.000234698 0)
(1.0002 0.000317102 0)
(1.00042 0.000436913 0)
(1.00069 0.000520856 0)
(1.00105 0.00050878 0)
(1.00144 0.000454762 0)
(1.00188 0.000423919 0)
(1.00232 0.000456017 0)
(1.00286 0.000528011 0)
(1.00352 0.000622244 0)
(1.00449 0.000718152 0)
(1.00587 0.000819415 0)
(1.00803 0.000920026 0)
(1.01155 0.00102413 0)
(0.999999 -3.14484e-05 0)
(0.999965 -3.02034e-05 0)
(0.999942 -2.63865e-05 0)
(0.999939 1.35792e-05 0)
(0.999966 8.49015e-05 0)
(1 0.000187994 0)
(1.00009 0.000273684 0)
(1.00024 0.000348931 0)
(1.00047 0.000418437 0)
(1.00072 0.000502936 0)
(1.00105 0.000534063 0)
(1.00142 0.000511404 0)
(1.00188 0.000468668 0)
(1.00234 0.000462326 0)
(1.00291 0.000497718 0)
(1.00359 0.000563796 0)
(1.00457 0.000637656 0)
(1.00595 0.000715469 0)
(1.00812 0.000792487 0)
(1.01165 0.000871209 0)
(1 -1.03234e-05 0)
(0.999971 -8.63388e-06 0)
(0.999954 2.40481e-05 0)
(0.999958 7.87046e-05 0)
(0.999992 0.0001309 0)
(1.00004 0.000211115 0)
(1.00012 0.00030787 0)
(1.00027 0.000383335 0)
(1.0005 0.000436308 0)
(1.00075 0.000484718 0)
(1.00106 0.000525013 0)
(1.00141 0.000526894 0)
(1.00186 0.000498603 0)
(1.00234 0.000471535 0)
(1.00294 0.000472561 0)
(1.00364 0.000501892 0)
(1.00462 0.000546145 0)
(1.00601 0.000596763 0)
(1.00819 0.00064855 0)
(1.01172 0.00070239 0)
(0.999999 5.87947e-06 0)
(0.999978 2.35384e-05 0)
(0.99997 7.28925e-05 0)
(0.999974 0.0001348 0)
(1.00001 0.000188477 0)
(1.00007 0.000251315 0)
(1.00015 0.000341518 0)
(1.00029 0.000423001 0)
(1.00052 0.000469223 0)
(1.00077 0.000495411 0)
(1.00107 0.000514666 0)
(1.00141 0.000519516 0)
(1.00184 0.000499236 0)
(1.00233 0.000466262 0)
(1.00293 0.000439941 0)
(1.00365 0.000431577 0)
(1.00465 0.000438941 0)
(1.00605 0.000458215 0)
(1.00823 0.000483724 0)
(1.01177 0.000513952 0)
(1 1.79346e-05 0)
(0.999982 6.67871e-05 0)
(0.999979 0.000118639 0)
(0.999987 0.00019021 0)
(1.00002 0.000248382 0)
(1.00009 0.000308436 0)
(1.00018 0.000384141 0)
(1.00032 0.000461416 0)
(1.00053 0.00050417 0)
(1.00077 0.000519248 0)
(1.00107 0.000516377 0)
(1.0014 0.000508506 0)
(1.00182 0.000485971 0)
(1.00229 0.000451292 0)
(1.0029 0.000406533 0)
(1.00363 0.000361751 0)
(1.00464 0.000319394 0)
(1.00605 0.000284351 0)
(1.00824 0.000256374 0)
(1.01179 0.000237742 0)
(0.999999 3.32098e-05 0)
(0.999984 0.000100731 0)
(0.999986 0.000169248 0)
(0.999996 0.000240418 0)
(1.00003 0.000311461 0)
(1.0001 0.000373239 0)
(1.0002 0.000443357 0)
(1.00033 0.000506981 0)
(1.00052 0.000549295 0)
(1.00075 0.000554229 0)
(1.00104 0.000535903 0)
(1.00137 0.000501451 0)
(1.00178 0.000462566 0)
(1.00224 0.000420422 0)
(1.00283 0.000379318 0)
(1.00355 0.000338814 0)
(1.00455 0.00030127 0)
(1.00595 0.000262821 0)
(1.00815 0.000226112 0)
(1.01171 0.000190852 0)
(1 4.74144e-05 0)
(0.999985 0.00013303 0)
(0.999988 0.00022311 0)
(1 0.000293397 0)
(1.00004 0.000376115 0)
(1.00011 0.000446127 0)
(1.00021 0.000512924 0)
(1.00033 0.000560672 0)
(1.00051 0.000596878 0)
(1.00072 0.000602532 0)
(1.00099 0.000581914 0)
(1.00131 0.000524153 0)
(1.00172 0.000439369 0)
(1.00219 0.00032734 0)
(1.00279 0.000202905 0)
(1.00351 6.98143e-05 0)
(1.00452 -5.75918e-05 0)
(1.00593 -0.000176209 0)
(1.00812 -0.000279227 0)
(1.01167 -0.00036993 0)
(0.999999 6.2094e-05 0)
(0.999986 0.000165222 0)
(0.999988 0.00027141 0)
(1 0.000348989 0)
(1.00004 0.000447991 0)
(1.00011 0.000533168 0)
(1.0002 0.000599878 0)
(1.00032 0.000628755 0)
(1.00049 0.00063914 0)
(1.00069 0.000640432 0)
(1.00093 0.000637233 0)
(1.0012 0.000619214 0)
(1.00155 0.000584502 0)
(1.00196 0.000526496 0)
(1.00251 0.0004502 0)
(1.0032 0.000351296 0)
(1.00419 0.000232257 0)
(1.0056 9.30132e-05 0)
(1.00782 -5.18943e-05 0)
(1.0114 -0.000194623 0)
(1 7.79267e-05 0)
(0.999983 0.000198458 0)
(0.999983 0.000306842 0)
(1 0.000390867 0)
(1.00005 0.000512989 0)
(1.00011 0.000611633 0)
(1.00018 0.00071379 0)
(1.00028 0.000752351 0)
(1.00045 0.000758458 0)
(1.00065 0.000697284 0)
(1.00091 0.000613452 0)
(1.00119 0.000476723 0)
(1.00157 0.000318309 0)
(1.00199 0.000113419 0)
(1.00254 -0.000101457 0)
(1.0032 -0.000339788 0)
(1.00413 -0.000570434 0)
(1.00546 -0.000806948 0)
(1.00761 -0.00102297 0)
(1.01114 -0.00121825 0)
(0.999999 0.00010972 0)
(0.999976 0.000231357 0)
(0.99997 0.000372833 0)
(1 0.000460598 0)
(1.00006 0.000592058 0)
(1.00012 0.000640424 0)
(1.00019 0.000741907 0)
(1.00026 0.000804328 0)
(1.00036 0.00092498 0)
(1.00048 0.000987429 0)
(1.00064 0.00108044 0)
(1.00082 0.00110165 0)
(1.00108 0.00111414 0)
(1.00139 0.00102875 0)
(1.00186 0.000906756 0)
(1.00248 0.000683869 0)
(1.00343 0.000414396 0)
(1.00481 4.45934e-05 0)
(1.00704 -0.000380479 0)
(1.01071 -0.00089101 0)
(1 0.00010971 0)
(0.999962 0.000195105 0)
(0.999958 0.000426288 0)
(0.999984 0.00056096 0)
(1.00002 0.000755828 0)
(1.00007 0.000808297 0)
(1.00017 0.000889656 0)
(1.0003 0.000840367 0)
(1.00048 0.000803438 0)
(1.00068 0.000653394 0)
(1.00091 0.00052904 0)
(1.00114 0.00032007 0)
(1.0014 0.000132343 0)
(1.00167 -0.000132881 0)
(1.00202 -0.000381294 0)
(1.00243 -0.000691087 0)
(1.00307 -0.000977263 0)
(1.00405 -0.00130054 0)
(1.00581 -0.00157117 0)
(1.00899 -0.0018317 0)
(0.999998 0.000247776 0)
(1 4.94593e-05 0)
(1.00003 0.000584456 0)
(1.00006 0.000414964 0)
(1.00008 0.000790801 0)
(1.0001 0.00064919 0)
(1.00009 0.00106117 0)
(1.00007 0.00108762 0)
(1.00006 0.00159398 0)
(1.00009 0.00174664 0)
(1.00016 0.00224093 0)
(1.00024 0.00234637 0)
(1.00038 0.00263702 0)
(1.00058 0.0025363 0)
(1.00093 0.00258092 0)
(1.00144 0.00229182 0)
(1.00231 0.0020669 0)
(1.00367 0.00136278 0)
(1.00597 0.000303599 0)
(1.00987 -0.00187652 0)
(0.999995 0.000116782 0)
(1.00002 0.000332351 0)
(1 0.000583166 0)
(0.999989 0.000745671 0)
(1.00002 0.000888754 0)
(1.00016 0.000905688 0)
(1.00038 0.000842373 0)
(1.00066 0.000685066 0)
(1.00098 0.000520921 0)
(1.00127 0.000324241 0)
(1.00149 0.000130455 0)
(1.00157 -9.49034e-05 0)
(1.00158 -0.000313625 0)
(1.00155 -0.000543476 0)
(1.00157 -0.000748761 0)
(1.00152 -0.000946955 0)
(1.00126 -0.00111459 0)
(1.00041 -0.00126919 0)
(0.998555 -0.00140029 0)
(0.994734 -0.00154896 0)
(0.999997 0.000140484 0)
(1.00003 0.000290407 0)
(1.00005 0.000475178 0)
(1.00005 0.000601242 0)
(0.999989 0.000842061 0)
(0.999848 0.0010366 0)
(0.999675 0.00127515 0)
(0.999522 0.00141976 0)
(0.999428 0.00152817 0)
(0.999368 0.00147747 0)
(0.999355 0.00133396 0)
(0.999363 0.00105841 0)
(0.99946 0.000771416 0)
(0.999641 0.000423362 0)
(1.00001 6.0292e-05 0)
(1.00058 -0.000402432 0)
(1.00157 -0.000929403 0)
(1.00313 -0.00155845 0)
(1.00572 -0.0021975 0)
(1.00996 -0.00281637 0)
(0.999995 0.000148659 0)
(0.999978 0.000409614 0)
(0.999962 0.000641262 0)
(1.00001 0.000778545 0)
(1.00013 0.000868872 0)
(1.00032 0.000858057 0)
(1.00055 0.000833746 0)
(1.00078 0.000745324 0)
(1.00093 0.00065587 0)
(1.00096 0.000518319 0)
(1.00089 0.000383406 0)
(1.00073 0.000211298 0)
(1.00056 3.85646e-05 0)
(1.00031 -0.000172109 0)
(0.999991 -0.000388657 0)
(0.999441 -0.000635975 0)
(0.998558 -0.000881313 0)
(0.997046 -0.00115202 0)
(0.994594 -0.00144432 0)
(0.990451 -0.00180678 0)
(0.999997 0.000108469 0)
(1.00003 0.000323429 0)
(0.999998 0.000536184 0)
(0.999919 0.000783759 0)
(0.999734 0.000999715 0)
(0.999479 0.00119715 0)
(0.999196 0.00130756 0)
(0.998942 0.00132159 0)
(0.998754 0.00120254 0)
(0.998613 0.000997477 0)
(0.998525 0.000721889 0)
(0.998458 0.000410146 0)
(0.998466 4.57034e-05 0)
(0.998553 -0.0003614 0)
(0.998836 -0.000823925 0)
(0.999364 -0.00131799 0)
(1.00035 -0.00183195 0)
(1.00194 -0.00231754 0)
(1.00455 -0.00274581 0)
(1.00876 -0.00305872 0)
(0.999998 0.000139477 0)
(0.999997 0.000294239 0)
(1.00004 0.000516417 0)
(1.00014 0.000638379 0)
(1.00027 0.000839815 0)
(1.00043 0.000997118 0)
(1.00053 0.00121586 0)
(1.00054 0.00134116 0)
(1.00044 0.00144815 0)
(1.00023 0.0014318 0)
(0.999953 0.00140348 0)
(0.999571 0.00127691 0)
(0.99912 0.00112453 0)
(0.998537 0.000856585 0)
(0.997841 0.000536647 0)
(0.996911 0.000103895 0)
(0.995699 -0.000381938 0)
(0.993949 -0.000978268 0)
(0.991381 -0.00163867 0)
(0.98726 -0.00241089 0)
(0.999996 8.80701e-05 0)
(1.00001 0.000284999 0)
(0.999976 0.000498264 0)
(0.999899 0.000759012 0)
(0.999747 0.00103077 0)
(0.999517 0.00127445 0)
(0.999198 0.00144792 0)
(0.998825 0.00154655 0)
(0.998458 0.00156484 0)
(0.998141 0.00150905 0)
(0.997879 0.00136747 0)
(0.997602 0.00113743 0)
(0.997325 0.000807125 0)
(0.997048 0.000378751 0)
(0.996919 -0.000149189 0)
(0.997007 -0.000762306 0)
(0.997522 -0.00143708 0)
(0.998621 -0.00213158 0)
(1.00076 -0.00279431 0)
(1.0046 -0.00336166 0)
(0.999996 0.000139235 0)
(1.00006 -0.000159013 0)
(1.0002 0.000139178 0)
(1.00041 9.22953e-05 0)
(1.00061 0.000632194 0)
(1.00073 0.000907154 0)
(1.00074 0.00166341 0)
(1.0006 0.00214803 0)
(1.00032 0.00295525 0)
(0.999863 0.00341669 0)
(0.999253 0.00401592 0)
(0.998451 0.00421395 0)
(0.997487 0.0044565 0)
(0.9963 0.00430524 0)
(0.994919 0.00412418 0)
(0.993271 0.00350766 0)
(0.991384 0.0027333 0)
(0.989092 0.00142121 0)
(0.9862 -0.00025848 0)
(0.982044 -0.00276504 0)
(1.00417 0.00203111 0)
(0.991724 0.00274341 0)
(0.977256 0.003153 0)
(0.962778 0.00343289 0)
(0.94879 0.0035925 0)
(0.935331 0.00358633 0)
(0.922343 0.00343481 0)
(0.909786 0.00322541 0)
(0.89761 0.00304673 0)
(0.88575 0.00294363 0)
(0.87406 0.0029006 0)
(0.862391 0.00288549 0)
(0.850595 0.00287473 0)
(0.838595 0.00285949 0)
(0.826331 0.00283905 0)
(0.813813 0.00281876 0)
(0.80104 0.00280082 0)
(0.78806 0.00278694 0)
(0.774889 0.0027751 0)
(0.761577 0.00276346 0)
(0.748132 0.00275045 0)
(0.734588 0.00273447 0)
(0.720939 0.00271694 0)
(0.707201 0.00269614 0)
(0.693371 0.00267507 0)
(0.679449 0.00265115 0)
(0.66544 0.00262826 0)
(0.651328 0.00260316 0)
(0.637133 0.0025785 0)
(0.622833 0.00255172 0)
(0.608459 0.00252392 0)
(0.593985 0.0024956 0)
(0.579447 0.00246459 0)
(0.564825 0.00243371 0)
(0.550151 0.00239929 0)
(0.535417 0.00236646 0)
(0.520632 0.00233332 0)
(0.505803 0.00229971 0)
(0.490927 0.00226854 0)
(0.476011 0.00223385 0)
(0.46107 0.00220308 0)
(0.446079 0.00216647 0)
(0.431119 0.00212105 0)
(0.416153 0.00206746 0)
(0.401323 0.00198793 0)
(0.386642 0.0019005 0)
(0.372218 0.00178731 0)
(0.358195 0.00167507 0)
(0.344523 0.00156832 0)
(0.331442 0.00143422 0)
(0.318874 0.00130776 0)
(0.306934 0.0011413 0)
(0.29578 0.000940538 0)
(0.285342 0.000736217 0)
(0.275893 0.000516652 0)
(0.267444 0.000315183 0)
(0.260057 0.000127945 0)
(0.253806 -4.24129e-05 0)
(0.248596 -0.000177578 0)
(0.244326 -0.000274141 0)
(0.240787 -0.000340895 0)
(0.237966 -0.000396943 0)
(0.235724 -0.000423878 0)
(0.233871 -0.000429253 0)
(0.232399 -0.000430046 0)
(0.231163 -0.00040625 0)
(0.23008 -0.000390489 0)
(0.229177 -0.00037987 0)
(0.228336 -0.000356813 0)
(0.227547 -0.000337098 0)
(0.226826 -0.000315773 0)
(0.226113 -0.000285301 0)
(0.225348 -0.000253673 0)
(0.224515 -0.000221174 0)
(0.223606 -0.000194422 0)
(0.22262 -0.000171939 0)
(0.221578 -0.000152306 0)
(0.220494 -0.000138104 0)
(0.219381 -0.000124786 0)
(0.218243 -0.000111554 0)
(0.21708 -9.84429e-05 0)
(0.215878 -8.36973e-05 0)
(0.214647 -7.294e-05 0)
(0.213385 -6.71687e-05 0)
(0.212126 -6.43448e-05 0)
(0.210882 -6.23418e-05 0)
(0.20967 -5.64486e-05 0)
(0.208471 -4.68548e-05 0)
(0.207269 -3.79421e-05 0)
(0.206047 -3.30372e-05 0)
(0.204823 -3.36408e-05 0)
(0.203614 -3.71844e-05 0)
(0.202454 -3.84983e-05 0)
(0.201349 -3.50775e-05 0)
(0.200292 -2.72845e-05 0)
(0.199249 -1.96475e-05 0)
(0.198206 -1.58089e-05 0)
(0.197147 -1.51237e-05 0)
(0.196094 -1.61014e-05 0)
(0.195067 -1.73794e-05 0)
(0.194099 -1.61659e-05 0)
(0.193176 -1.13487e-05 0)
(0.192282 -7.13819e-06 0)
(0.191391 -5.57483e-06 0)
(0.190522 -4.92728e-06 0)
(0.189667 -4.43725e-06 0)
(0.188852 -5.2733e-06 0)
(0.188069 -5.63446e-06 0)
(0.187324 -3.96899e-06 0)
(0.186575 -3.81602e-07 0)
(0.185835 2.81116e-06 0)
(0.185116 3.52563e-06 0)
(0.18448 1.51297e-06 0)
(0.183894 1.14552e-06 0)
(0.183331 2.50027e-06 0)
(0.182751 2.88306e-06 0)
(0.182216 1.69844e-06 0)
(0.18171 2.2468e-06 0)
(0.181243 4.02855e-06 0)
(0.180769 5.58559e-06 0)
(0.180342 5.53521e-06 0)
(0.17993 5.78099e-06 0)
(0.179569 6.05621e-06 0)
(0.179205 6.58382e-06 0)
(0.178894 6.07641e-06 0)
(0.178579 6.14866e-06 0)
(0.178319 5.95899e-06 0)
(0.178048 6.25293e-06 0)
(0.177832 6.32399e-06 0)
(0.177595 6.68436e-06 0)
(0.177414 6.28895e-06 0)
(0.177211 6.26431e-06 0)
(0.177067 6.26774e-06 0)
(0.176889 6.3284e-06 0)
(0.176775 5.37882e-06 0)
(0.176627 4.9456e-06 0)
(0.176548 4.53768e-06 0)
(0.17642 4.67355e-06 0)
(0.176365 3.86375e-06 0)
(0.176257 4.07589e-06 0)
(0.176231 3.64712e-06 0)
(0.176132 4.11504e-06 0)
(0.176125 3.35548e-06 0)
(0.176037 3.64146e-06 0)
(0.17605 3.13701e-06 0)
(0.175967 3.53904e-06 0)
(0.175997 3.0921e-06 0)
(0.175919 3.15621e-06 0)
(0.175966 2.68502e-06 0)
(0.175892 2.47762e-06 0)
(0.175953 1.95147e-06 0)
(0.175879 1.62073e-06 0)
(0.175948 1.18067e-06 0)
(0.175871 9.39694e-07 0)
(0.175947 5.05658e-07 0)
(0.175865 4.72926e-07 0)
(0.17595 -5.81743e-08 0)
(0.175862 2.8015e-07 0)
(0.175959 -4.02516e-07 0)
(0.175863 2.26917e-07 0)
(0.175974 -5.45727e-07 0)
(0.175868 1.68947e-07 0)
(0.175995 -6.08889e-07 0)
(0.175876 7.48589e-08 0)
(0.17602 -6.33044e-07 0)
(0.175884 -3.43945e-08 0)
(0.176047 -6.66586e-07 0)
(0.175891 -3.46029e-10 0)
(0.176076 -7.69012e-07 0)
(0.175894 1.68921e-07 0)
(0.176106 -9.46381e-07 0)
(0.175891 3.69679e-07 0)
(0.176137 -1.07117e-06 0)
(0.175881 5.0088e-07 0)
(0.17617 -1.04404e-06 0)
(0.175862 6.16487e-07 0)
(0.176204 -1.02866e-06 0)
(0.175832 9.7048e-07 0)
(0.17624 -1.17871e-06 0)
(0.175787 1.55378e-06 0)
(0.176281 -1.44743e-06 0)
(0.175725 2.06089e-06 0)
(0.176324 -1.45326e-06 0)
(0.175644 2.32946e-06 0)
(0.176365 -1.25979e-06 0)
(0.175541 2.64688e-06 0)
(0.176398 -1.18056e-06 0)
(0.175408 3.38623e-06 0)
(0.176414 -1.2506e-06 0)
(0.175231 4.51773e-06 0)
(0.17639 -5.30876e-07 0)
(0.17498 6.4058e-06 0)
(0.176281 1.1292e-06 0)
(0.174592 1.00852e-05 0)
(0.176001 5.07442e-06 0)
(0.173889 1.58335e-05 0)
(0.175415 2.074e-05 0)
(0.172266 1.7184e-05 0)
(0.174402 7.75779e-05 0)
(0.167805 0.000140286 0)
(1.01004 0.00168411 0)
(1.00898 0.00269599 0)
(1.00587 0.00387472 0)
(1.00277 0.00506696 0)
(1.0001 0.00586549 0)
(0.997901 0.00612775 0)
(0.996163 0.00593193 0)
(0.994859 0.00552617 0)
(0.993909 0.00517209 0)
(0.993208 0.0049958 0)
(0.992594 0.00497065 0)
(0.991924 0.00501631 0)
(0.991088 0.00507132 0)
(0.990005 0.00511098 0)
(0.988654 0.00513432 0)
(0.987013 0.00515073 0)
(0.985116 0.00516864 0)
(0.982958 0.00519112 0)
(0.980594 0.0052179 0)
(0.978016 0.00524457 0)
(0.975275 0.00526957 0)
(0.972347 0.00529003 0)
(0.969269 0.00530728 0)
(0.966011 0.00532098 0)
(0.962599 0.00533282 0)
(0.959001 0.00534356 0)
(0.955235 0.0053542 0)
(0.95127 0.00536527 0)
(0.947125 0.00537589 0)
(0.942766 0.00538596 0)
(0.938219 0.00539452 0)
(0.933448 0.0054019 0)
(0.92848 0.00540687 0)
(0.923283 0.00540913 0)
(0.917883 0.00540846 0)
(0.912253 0.00540524 0)
(0.90641 0.00540138 0)
(0.900331 0.00539444 0)
(0.894036 0.00538787 0)
(0.887491 0.00537826 0)
(0.880736 0.00536928 0)
(0.873714 0.00535773 0)
(0.866492 0.00533821 0)
(0.859025 0.00531084 0)
(0.85137 0.00526412 0)
(0.843547 0.0051985 0)
(0.835556 0.00510843 0)
(0.827507 0.00499104 0)
(0.819333 0.00485705 0)
(0.811164 0.00468915 0)
(0.802985 0.00450435 0)
(0.794822 0.00429896 0)
(0.786796 0.00405781 0)
(0.778851 0.00379697 0)
(0.771145 0.00350384 0)
(0.763675 0.00318532 0)
(0.756503 0.00285714 0)
(0.749705 0.00252442 0)
(0.743229 0.00220828 0)
(0.737161 0.00192448 0)
(0.731343 0.00167904 0)
(0.725855 0.00146576 0)
(0.720621 0.00128173 0)
(0.715578 0.00113591 0)
(0.710756 0.00101718 0)
(0.706058 0.000924865 0)
(0.701497 0.000853185 0)
(0.697072 0.000786363 0)
(0.692702 0.000731347 0)
(0.68846 0.00068634 0)
(0.684245 0.000646439 0)
(0.680098 0.000621886 0)
(0.675993 0.000611461 0)
(0.671833 0.00060953 0)
(0.667708 0.000610625 0)
(0.663553 0.000608255 0)
(0.65939 0.000601462 0)
(0.655269 0.000592027 0)
(0.651151 0.000581634 0)
(0.647055 0.000573683 0)
(0.642999 0.000566062 0)
(0.638912 0.000560838 0)
(0.634868 0.000557248 0)
(0.630805 0.000549633 0)
(0.626773 0.000536403 0)
(0.622787 0.000517869 0)
(0.618849 0.000497658 0)
(0.614939 0.00048384 0)
(0.611086 0.000477262 0)
(0.607227 0.000471917 0)
(0.603413 0.000464455 0)
(0.599629 0.000449494 0)
(0.595909 0.000426977 0)
(0.592244 0.000402178 0)
(0.588654 0.000381456 0)
(0.585126 0.000369694 0)
(0.581671 0.000366169 0)
(0.57823 0.000362699 0)
(0.574843 0.000353927 0)
(0.571516 0.000336929 0)
(0.568256 0.000313365 0)
(0.565038 0.000295533 0)
(0.561931 0.000285809 0)
(0.558887 0.000276453 0)
(0.555922 0.000265598 0)
(0.553014 0.00025507 0)
(0.550222 0.000241531 0)
(0.547467 0.000229578 0)
(0.544778 0.000221886 0)
(0.542089 0.000214764 0)
(0.539508 0.000201821 0)
(0.537016 0.000181375 0)
(0.534704 0.000159113 0)
(0.532464 0.000150425 0)
(0.530357 0.000151282 0)
(0.528265 0.00014549 0)
(0.526287 0.000130858 0)
(0.524332 0.000121195 0)
(0.522505 0.000115597 0)
(0.520685 0.00010809 0)
(0.519016 9.62773e-05 0)
(0.517368 8.73632e-05 0)
(0.515886 7.99171e-05 0)
(0.514401 7.39714e-05 0)
(0.513094 6.61255e-05 0)
(0.511768 6.05382e-05 0)
(0.510628 5.42157e-05 0)
(0.509444 4.91841e-05 0)
(0.508449 4.36788e-05 0)
(0.507392 4.01845e-05 0)
(0.506537 3.49662e-05 0)
(0.505596 3.09209e-05 0)
(0.504864 2.73023e-05 0)
(0.504031 2.50476e-05 0)
(0.503427 2.07246e-05 0)
(0.502698 1.82027e-05 0)
(0.50221 1.56193e-05 0)
(0.501567 1.475e-05 0)
(0.501187 1.09872e-05 0)
(0.500615 9.83971e-06 0)
(0.500332 7.05622e-06 0)
(0.499818 7.30088e-06 0)
(0.499627 4.13974e-06 0)
(0.499161 4.31836e-06 0)
(0.499054 1.79162e-06 0)
(0.498628 2.39046e-06 0)
(0.498598 -3.511e-08 0)
(0.498209 1.15992e-07 0)
(0.498255 -1.47803e-06 0)
(0.497901 -1.0546e-06 0)
(0.49801 -1.59682e-06 0)
(0.497676 -1.04221e-06 0)
(0.497832 -1.10403e-06 0)
(0.497503 -4.4277e-07 0)
(0.497698 -7.49229e-07 0)
(0.497364 9.08339e-08 0)
(0.497598 -9.65093e-07 0)
(0.497254 3.05601e-07 0)
(0.497537 -1.50515e-06 0)
(0.497175 2.78915e-07 0)
(0.497515 -2.03389e-06 0)
(0.497125 1.56764e-07 0)
(0.49753 -2.3408e-06 0)
(0.497099 9.54018e-08 0)
(0.497573 -2.3609e-06 0)
(0.497092 1.5346e-07 0)
(0.497641 -2.39664e-06 0)
(0.497093 5.1617e-07 0)
(0.49773 -2.56424e-06 0)
(0.497093 1.08699e-06 0)
(0.497839 -2.74744e-06 0)
(0.497083 1.73579e-06 0)
(0.497965 -2.72691e-06 0)
(0.497057 2.13997e-06 0)
(0.498104 -2.48962e-06 0)
(0.49701 2.2932e-06 0)
(0.498253 -2.12386e-06 0)
(0.496931 2.42457e-06 0)
(0.498418 -1.88346e-06 0)
(0.496811 2.73864e-06 0)
(0.498597 -1.81593e-06 0)
(0.496647 3.38372e-06 0)
(0.49878 -1.72431e-06 0)
(0.496451 4.17258e-06 0)
(0.498955 -1.14006e-06 0)
(0.496224 5.10575e-06 0)
(0.499116 -1.2924e-07 0)
(0.495956 6.9115e-06 0)
(0.499255 1.16924e-06 0)
(0.495632 1.02562e-05 0)
(0.499341 3.73389e-06 0)
(0.495231 1.56173e-05 0)
(0.499318 9.7392e-06 0)
(0.494687 2.50527e-05 0)
(0.499082 2.3622e-05 0)
(0.493838 4.34701e-05 0)
(0.498414 5.91343e-05 0)
(0.492242 8.8326e-05 0)
(0.496705 0.000139006 0)
(0.488805 0.000393544 0)
(1.00893 0.00189383 0)